   38   38  150    1
  0.3386168E+02  0.7529542E-09  0.7529542E-09  0.2620742E-08  0.5000000E-15
  1.000000000000000E-004
  CAR 
 unknown system                          
    620      7    372
 
  0.0000000E+00  0.0000000E+00  0.0000000E+00  0.6250000E-01
    1      -71.932630
    2      -71.924796
    3      -71.870175
    4      -71.857750
    5      -71.845856
    6      -71.832620
    7      -71.620247
    8      -71.615107
    9      -71.547396
   10      -71.541091
   11      -71.531417
   12      -71.526632
   13      -71.509812
   14      -71.494733
   15      -71.473542
   16      -71.469840
   17      -71.466714
   18      -71.462976
   19      -71.159740
   20      -71.159572
   21      -71.156758
   22      -71.153560
   23      -71.153124
   24      -71.149778
   25      -71.146020
   26      -71.142949
   27      -71.137180
   28      -71.136064
   29      -71.132553
   30      -71.126483
   31      -71.125421
   32      -71.122524
   33      -71.117565
   34      -71.117208
   35      -71.108592
   36      -71.104811
   37      -71.101304
   38      -71.094113
   39      -71.093900
   40      -71.090740
   41      -71.089251
   42      -71.088829
   43      -71.086600
   44      -71.084380
   45      -71.081757
   46      -71.076708
   47      -71.073883
   48      -71.069417
   49      -71.064963
   50      -71.060006
   51      -71.056176
   52      -71.051635
   53      -71.049869
   54      -71.048420
   55      -71.046315
   56      -71.041505
   57      -71.040774
   58      -71.040429
   59      -71.037121
   60      -71.029226
   61      -71.025341
   62      -71.012089
   63      -71.005352
   64      -71.004317
   65      -71.003434
   66      -70.996938
   67      -70.995029
   68      -70.990658
   69      -70.985147
   70      -70.979175
   71      -70.948309
   72      -70.946757
   73      -70.911987
   74      -70.906264
   75      -70.896251
   76      -70.894281
   77      -70.889623
   78      -70.887762
   79      -70.885326
   80      -70.883416
   81      -70.877771
   82      -70.875385
   83      -70.867515
   84      -70.859718
   85      -70.853959
   86      -70.849052
   87      -70.845672
   88      -70.845469
   89      -70.834993
   90      -70.832040
   91      -70.830565
   92      -70.828371
   93      -70.813732
   94      -70.812217
   95      -70.803710
   96      -70.800890
   97      -70.785262
   98      -70.783533
   99      -70.780545
  100      -70.775252
  101      -70.771973
  102      -70.770755
  103      -70.768306
  104      -70.765807
  105      -70.763996
  106      -70.762440
  107      -70.759630
  108      -70.694348
  109      -12.475246
  110      -12.051727
  111      -10.213714
  112       -8.737103
  113       -7.320994
  114       -7.268320
  115       -7.257533
  116       -7.247258
  117       -7.203555
  118       -7.135841
  119       -7.058267
  120       -6.739137
  121       -6.696751
  122       -6.647810
  123       -6.571541
  124       -6.461537
  125       -6.367862
  126       -6.347295
  127       -6.031829
  128       -5.998570
  129       -5.982879
  130       -5.944232
  131       -5.817231
  132       -5.743596
  133       -5.617907
  134       -5.495655
  135       -5.483315
  136       -5.459218
  137       -5.446313
  138       -5.438134
  139       -5.388222
  140       -5.367417
  141       -5.348277
  142       -5.343795
  143       -5.327702
  144       -5.301584
  145       -5.299778
  146       -5.289376
  147       -5.284088
  148       -5.225728
  149       -5.176301
  150       -5.146108
  151       -5.145832
  152       -5.144729
  153       -5.122348
  154       -5.102410
  155       -5.075125
  156       -5.073600
  157       -5.046504
  158       -4.955010
  159       -4.949039
  160       -4.931118
  161       -4.930373
  162       -4.921125
  163       -4.907464
  164       -4.895492
  165       -4.883273
  166       -4.841787
  167       -4.794138
  168       -4.744945
  169       -4.744062
  170       -4.620687
  171       -4.614459
  172       -4.565764
  173       -4.554447
  174       -4.532436
  175       -4.527373
  176       -4.488626
  177       -4.485351
  178       -4.468038
  179       -4.452498
  180       -4.434015
  181       -4.380179
  182       -4.353356
  183       -4.332301
  184       -4.308776
  185       -4.300677
  186       -4.291986
  187       -4.265646
  188       -4.249798
  189       -4.222912
  190       -4.191822
  191       -4.171336
  192       -4.161220
  193       -4.152955
  194       -4.136876
  195       -4.131214
  196       -4.129863
  197       -4.113439
  198       -4.098401
  199       -4.093416
  200       -4.042984
  201       -4.037799
  202       -4.029429
  203       -3.984845
  204       -3.977067
  205       -3.962856
  206       -3.947281
  207       -3.934423
  208       -3.929353
  209       -3.926666
  210       -3.913254
  211       -3.910106
  212       -3.886055
  213       -3.874330
  214       -3.871857
  215       -3.861190
  216       -3.851628
  217       -3.849738
  218       -3.834225
  219       -3.833127
  220       -3.829258
  221       -3.822466
  222       -3.780216
  223       -3.763077
  224       -3.740246
  225       -3.722541
  226       -3.707006
  227       -3.610725
  228       -3.589033
  229       -3.548512
  230       -3.540586
  231       -3.506757
  232       -3.491108
  233       -3.458779
  234       -3.443426
  235       -3.434326
  236       -3.430743
  237       -3.420314
  238       -3.418690
  239       -3.409138
  240       -3.383759
  241       -3.380218
  242       -3.362885
  243       -3.347697
  244       -3.294173
  245       -3.274612
  246       -3.266830
  247       -3.252023
  248       -3.244450
  249       -3.234467
  250       -3.225838
  251       -3.214244
  252       -3.199874
  253       -3.194184
  254       -3.168384
  255       -3.164889
  256       -3.150946
  257       -3.143990
  258       -3.105874
  259       -3.059471
  260       -3.035048
  261       -3.016434
  262       -3.014432
  263       -3.010758
  264       -2.984276
  265       -2.982841
  266       -2.968243
  267       -2.956524
  268       -2.949024
  269       -2.942169
  270       -2.935109
  271       -2.924199
  272       -2.917648
  273       -2.917096
  274       -2.913976
  275       -2.899716
  276       -2.894724
  277       -2.887113
  278       -2.870709
  279       -2.863380
  280       -2.856098
  281       -2.850480
  282       -2.845203
  283       -2.822721
  284       -2.802445
  285       -2.786481
  286       -2.784018
  287       -2.776612
  288       -2.774728
  289       -2.771615
  290       -2.769389
  291       -2.767787
  292       -2.757207
  293       -2.752960
  294       -2.747238
  295       -2.742476
  296       -2.738582
  297       -2.686458
  298       -2.678148
  299       -2.651650
  300       -2.646877
  301       -2.645566
  302       -2.637313
  303       -2.632593
  304       -2.604578
  305       -2.596329
  306       -2.057090
  307       -1.950251
  308       -1.935914
  309       -1.787780
  310       -1.591211
  311       -1.502773
  312       -1.267993
  313       -0.568858
  314       -0.396098
  315       -0.338754
  316       -0.245077
  317       -0.243238
  318        0.600137
  319        0.640940
  320        1.013685
  321        1.463529
  322        1.757164
  323        2.008863
  324        2.435284
  325        2.544797
  326        2.567882
  327        2.632165
  328        2.802186
  329        2.843761
  330        2.868776
  331        3.230629
  332        3.378931
  333        3.445760
  334        3.572590
  335        3.619228
  336        3.693978
  337        3.699018
  338        3.841764
  339        4.157438
  340        4.266641
  341        4.455448
  342        4.458771
  343        4.563734
  344        4.731161
  345        4.800153
  346        4.959510
  347        5.379720
  348        5.501534
  349        5.569843
  350        5.884361
  351        6.023129
  352        6.062473
  353        6.078763
  354        6.169229
  355        6.281626
  356        6.356517
  357        6.464870
  358        6.481363
  359        6.755628
  360        6.761628
  361        6.942326
  362        6.958218
  363        6.991820
  364        7.070669
  365        7.137350
  366        7.154451
  367        7.240643
  368        7.255030
  369        7.300661
  370        7.330888
  371        7.473240
  372        7.555522
 
  0.2500000E+00  0.5551115E-16  0.0000000E+00  0.2500000E+00
    1      -71.932540
    2      -71.924685
    3      -71.870754
    4      -71.856845
    5      -71.846432
    6      -71.831686
    7      -71.619756
    8      -71.615533
    9      -71.547066
   10      -71.539650
   11      -71.531314
   12      -71.528374
   13      -71.507356
   14      -71.495826
   15      -71.472966
   16      -71.469578
   17      -71.466786
   18      -71.463414
   19      -71.172218
   20      -71.165585
   21      -71.161211
   22      -71.159169
   23      -71.151388
   24      -71.144941
   25      -71.141842
   26      -71.134204
   27      -71.131552
   28      -71.128651
   29      -71.127166
   30      -71.124131
   31      -71.122866
   32      -71.119174
   33      -71.117773
   34      -71.116957
   35      -71.108589
   36      -71.105951
   37      -71.104209
   38      -71.097445
   39      -71.095269
   40      -71.094550
   41      -71.089918
   42      -71.087912
   43      -71.086806
   44      -71.084706
   45      -71.083463
   46      -71.078150
   47      -71.075480
   48      -71.070079
   49      -71.068731
   50      -71.063445
   51      -71.051960
   52      -71.050486
   53      -71.048442
   54      -71.047426
   55      -71.041580
   56      -71.041013
   57      -71.040424
   58      -71.037141
   59      -71.035895
   60      -71.027941
   61      -71.022430
   62      -71.012918
   63      -71.005480
   64      -71.004603
   65      -71.004349
   66      -70.998281
   67      -70.997089
   68      -70.991392
   69      -70.982194
   70      -70.979038
   71      -70.949864
   72      -70.948489
   73      -70.917799
   74      -70.910992
   75      -70.901802
   76      -70.899140
   77      -70.893712
   78      -70.885379
   79      -70.879534
   80      -70.872420
   81      -70.872356
   82      -70.867059
   83      -70.862156
   84      -70.858726
   85      -70.856304
   86      -70.849334
   87      -70.845628
   88      -70.838234
   89      -70.837269
   90      -70.835141
   91      -70.830645
   92      -70.827809
   93      -70.818209
   94      -70.813925
   95      -70.807489
   96      -70.800733
   97      -70.785093
   98      -70.783175
   99      -70.780684
  100      -70.774775
  101      -70.772747
  102      -70.770143
  103      -70.768130
  104      -70.765821
  105      -70.763922
  106      -70.762260
  107      -70.759620
  108      -70.694250
  109      -12.410882
  110      -12.110625
  111       -9.996123
  112       -8.566552
  113       -8.361382
  114       -7.669486
  115       -7.640826
  116       -7.289015
  117       -6.983974
  118       -6.857898
  119       -6.748398
  120       -6.608860
  121       -6.582631
  122       -6.443968
  123       -6.324287
  124       -6.272638
  125       -6.243817
  126       -6.211300
  127       -6.082900
  128       -5.980100
  129       -5.922774
  130       -5.916277
  131       -5.792762
  132       -5.730387
  133       -5.636548
  134       -5.564292
  135       -5.543964
  136       -5.531591
  137       -5.511515
  138       -5.477506
  139       -5.454362
  140       -5.427350
  141       -5.419382
  142       -5.399365
  143       -5.376697
  144       -5.352805
  145       -5.335906
  146       -5.317497
  147       -5.298116
  148       -5.258659
  149       -5.243773
  150       -5.213756
  151       -5.193855
  152       -5.169496
  153       -5.122275
  154       -5.095111
  155       -5.074255
  156       -5.042373
  157       -5.010705
  158       -5.000930
  159       -4.986722
  160       -4.972994
  161       -4.936475
  162       -4.871140
  163       -4.849010
  164       -4.828141
  165       -4.806986
  166       -4.776508
  167       -4.757987
  168       -4.713636
  169       -4.686532
  170       -4.664098
  171       -4.627569
  172       -4.610824
  173       -4.590509
  174       -4.579870
  175       -4.553342
  176       -4.514321
  177       -4.493979
  178       -4.487067
  179       -4.465623
  180       -4.436280
  181       -4.401296
  182       -4.365226
  183       -4.360448
  184       -4.339234
  185       -4.332927
  186       -4.299772
  187       -4.275195
  188       -4.249063
  189       -4.244878
  190       -4.227209
  191       -4.209005
  192       -4.195758
  193       -4.188520
  194       -4.172923
  195       -4.151410
  196       -4.131727
  197       -4.120514
  198       -4.103608
  199       -4.078946
  200       -4.066252
  201       -4.053569
  202       -4.030007
  203       -4.026034
  204       -4.017890
  205       -4.010827
  206       -3.994544
  207       -3.984854
  208       -3.970604
  209       -3.962639
  210       -3.933315
  211       -3.923577
  212       -3.916018
  213       -3.913848
  214       -3.908490
  215       -3.887600
  216       -3.869399
  217       -3.855579
  218       -3.844805
  219       -3.817242
  220       -3.796459
  221       -3.782594
  222       -3.778370
  223       -3.765899
  224       -3.757503
  225       -3.751066
  226       -3.744648
  227       -3.730053
  228       -3.695223
  229       -3.659497
  230       -3.649184
  231       -3.606741
  232       -3.579157
  233       -3.529655
  234       -3.514733
  235       -3.496066
  236       -3.470481
  237       -3.459342
  238       -3.427037
  239       -3.413100
  240       -3.400669
  241       -3.387465
  242       -3.364606
  243       -3.349918
  244       -3.339518
  245       -3.330432
  246       -3.301147
  247       -3.287870
  248       -3.267352
  249       -3.250901
  250       -3.240919
  251       -3.218467
  252       -3.215074
  253       -3.185844
  254       -3.179412
  255       -3.168088
  256       -3.158074
  257       -3.150601
  258       -3.128242
  259       -3.116634
  260       -3.103770
  261       -3.068990
  262       -3.044946
  263       -3.038666
  264       -3.028211
  265       -3.012818
  266       -3.004578
  267       -2.980008
  268       -2.965982
  269       -2.949409
  270       -2.942587
  271       -2.930666
  272       -2.908113
  273       -2.891562
  274       -2.874956
  275       -2.861931
  276       -2.858948
  277       -2.831775
  278       -2.803871
  279       -2.796491
  280       -2.789037
  281       -2.768786
  282       -2.758340
  283       -2.746096
  284       -2.740813
  285       -2.733810
  286       -2.713631
  287       -2.701954
  288       -2.699087
  289       -2.694040
  290       -2.683528
  291       -2.674920
  292       -2.663569
  293       -2.654329
  294       -2.644451
  295       -2.633866
  296       -2.624489
  297       -2.614796
  298       -2.593567
  299       -2.527531
  300       -2.477762
  301       -2.365114
  302       -2.341646
  303       -2.178559
  304       -2.127650
  305       -2.067627
  306       -1.967722
  307       -1.855392
  308       -1.731453
  309       -1.449205
  310       -1.221169
  311       -1.158133
  312       -0.927136
  313       -0.805437
  314       -0.461366
  315       -0.350126
  316       -0.129571
  317        0.039764
  318        0.331867
  319        0.574940
  320        0.708863
  321        0.789954
  322        0.916657
  323        1.262389
  324        1.585324
  325        1.688885
  326        1.816290
  327        2.009171
  328        2.342466
  329        2.570964
  330        2.804257
  331        3.022839
  332        3.175307
  333        3.303535
  334        3.536900
  335        3.610865
  336        4.007356
  337        4.192820
  338        4.313105
  339        4.396968
  340        4.578724
  341        4.685303
  342        4.732620
  343        4.897546
  344        5.029287
  345        5.129936
  346        5.166217
  347        5.284400
  348        5.336948
  349        5.453225
  350        5.601641
  351        5.700829
  352        5.814986
  353        5.861369
  354        5.980790
  355        6.062698
  356        6.200452
  357        6.254780
  358        6.310445
  359        6.407566
  360        6.416427
  361        6.552996
  362        6.624234
  363        6.720260
  364        6.800231
  365        6.898746
  366        7.063596
  367        7.191698
  368        7.248145
  369        7.370359
  370        7.434326
  371        7.501195
  372        7.551442
 
  0.5000000E+00  0.1110223E-15  0.0000000E+00  0.1250000E+00
    1      -71.932684
    2      -71.924799
    3      -71.871464
    4      -71.856212
    5      -71.847141
    6      -71.831022
    7      -71.619369
    8      -71.616401
    9      -71.546899
   10      -71.537675
   11      -71.531779
   12      -71.530596
   13      -71.504541
   14      -71.498061
   15      -71.472425
   16      -71.469692
   17      -71.466721
   18      -71.464064
   19      -71.178002
   20      -71.169102
   21      -71.165279
   22      -71.163184
   23      -71.154877
   24      -71.140151
   25      -71.137134
   26      -71.132374
   27      -71.127873
   28      -71.126596
   29      -71.122957
   30      -71.119088
   31      -71.118606
   32      -71.117628
   33      -71.114494
   34      -71.111116
   35      -71.109684
   36      -71.107651
   37      -71.106084
   38      -71.099775
   39      -71.097263
   40      -71.095993
   41      -71.094206
   42      -71.089446
   43      -71.088529
   44      -71.087149
   45      -71.082819
   46      -71.079838
   47      -71.079316
   48      -71.073472
   49      -71.070083
   50      -71.065133
   51      -71.051775
   52      -71.050300
   53      -71.049770
   54      -71.041540
   55      -71.040680
   56      -71.038647
   57      -71.038422
   58      -71.033337
   59      -71.032163
   60      -71.029623
   61      -71.019677
   62      -71.013752
   63      -71.006519
   64      -71.004897
   65      -71.004510
   66      -71.002812
   67      -70.998188
   68      -70.992653
   69      -70.979330
   70      -70.978464
   71      -70.953728
   72      -70.949542
   73      -70.922301
   74      -70.913924
   75      -70.905194
   76      -70.903603
   77      -70.897418
   78      -70.878479
   79      -70.875904
   80      -70.875604
   81      -70.863192
   82      -70.858259
   83      -70.857318
   84      -70.856364
   85      -70.854643
   86      -70.849410
   87      -70.845037
   88      -70.843215
   89      -70.838871
   90      -70.831580
   91      -70.829723
   92      -70.827348
   93      -70.825888
   94      -70.815469
   95      -70.814869
   96      -70.800675
   97      -70.785228
   98      -70.782981
   99      -70.780868
  100      -70.774164
  101      -70.773612
  102      -70.769703
  103      -70.768015
  104      -70.765745
  105      -70.763773
  106      -70.762190
  107      -70.759574
  108      -70.694182
  109      -12.274596
  110      -12.241311
  111       -9.378160
  112       -9.338343
  113       -8.130815
  114       -7.993720
  115       -7.801448
  116       -7.746173
  117       -6.921716
  118       -6.855051
  119       -6.565576
  120       -6.526570
  121       -6.241845
  122       -6.180444
  123       -6.158633
  124       -6.087862
  125       -6.009537
  126       -5.985309
  127       -5.942847
  128       -5.925890
  129       -5.895097
  130       -5.888719
  131       -5.849449
  132       -5.809919
  133       -5.762497
  134       -5.754255
  135       -5.715616
  136       -5.701147
  137       -5.627462
  138       -5.579127
  139       -5.565366
  140       -5.560777
  141       -5.515755
  142       -5.458670
  143       -5.427562
  144       -5.378153
  145       -5.309319
  146       -5.305261
  147       -5.298259
  148       -5.282340
  149       -5.261759
  150       -5.238679
  151       -5.209540
  152       -5.198219
  153       -5.136754
  154       -5.095415
  155       -5.085549
  156       -5.056721
  157       -4.979195
  158       -4.960242
  159       -4.940190
  160       -4.931350
  161       -4.908831
  162       -4.874793
  163       -4.843963
  164       -4.829912
  165       -4.762463
  166       -4.753235
  167       -4.708519
  168       -4.700409
  169       -4.693708
  170       -4.662529
  171       -4.644488
  172       -4.611637
  173       -4.603113
  174       -4.583745
  175       -4.544772
  176       -4.512701
  177       -4.506139
  178       -4.486984
  179       -4.453999
  180       -4.445387
  181       -4.418004
  182       -4.380433
  183       -4.377291
  184       -4.354661
  185       -4.351991
  186       -4.339797
  187       -4.308154
  188       -4.302822
  189       -4.287975
  190       -4.275798
  191       -4.272081
  192       -4.258279
  193       -4.243337
  194       -4.221715
  195       -4.202887
  196       -4.184515
  197       -4.173730
  198       -4.151753
  199       -4.145241
  200       -4.122430
  201       -4.077481
  202       -4.069082
  203       -4.047198
  204       -4.043350
  205       -4.040767
  206       -4.028915
  207       -3.994222
  208       -3.990644
  209       -3.972707
  210       -3.966694
  211       -3.949409
  212       -3.905762
  213       -3.895946
  214       -3.890472
  215       -3.888646
  216       -3.864422
  217       -3.840290
  218       -3.816589
  219       -3.812062
  220       -3.806355
  221       -3.794041
  222       -3.784432
  223       -3.767803
  224       -3.749367
  225       -3.726712
  226       -3.711340
  227       -3.700068
  228       -3.673732
  229       -3.660756
  230       -3.613177
  231       -3.594422
  232       -3.585941
  233       -3.568694
  234       -3.550935
  235       -3.535570
  236       -3.527027
  237       -3.524234
  238       -3.502480
  239       -3.485221
  240       -3.460645
  241       -3.450275
  242       -3.429805
  243       -3.413797
  244       -3.389456
  245       -3.362778
  246       -3.333499
  247       -3.313498
  248       -3.306362
  249       -3.276642
  250       -3.257438
  251       -3.241586
  252       -3.211859
  253       -3.197375
  254       -3.190186
  255       -3.177277
  256       -3.162444
  257       -3.148511
  258       -3.128705
  259       -3.117690
  260       -3.091434
  261       -3.065956
  262       -3.057171
  263       -3.047427
  264       -3.038266
  265       -3.023038
  266       -3.016587
  267       -3.001023
  268       -2.992236
  269       -2.976747
  270       -2.947140
  271       -2.914465
  272       -2.900068
  273       -2.895708
  274       -2.879516
  275       -2.854761
  276       -2.846025
  277       -2.824654
  278       -2.793613
  279       -2.786386
  280       -2.757365
  281       -2.752133
  282       -2.734380
  283       -2.724903
  284       -2.712761
  285       -2.705043
  286       -2.693776
  287       -2.681871
  288       -2.675427
  289       -2.661453
  290       -2.655822
  291       -2.630368
  292       -2.617413
  293       -2.570626
  294       -2.562854
  295       -2.559811
  296       -2.533285
  297       -2.516622
  298       -2.445285
  299       -2.381549
  300       -2.352681
  301       -2.052052
  302       -2.002187
  303       -1.814150
  304       -1.553924
  305       -1.472515
  306       -1.279429
  307       -1.262737
  308       -1.094429
  309       -1.048207
  310       -0.988466
  311       -0.904556
  312       -0.768337
  313       -0.765689
  314       -0.523442
  315       -0.460913
  316       -0.313259
  317       -0.165214
  318       -0.060715
  319        0.131998
  320        0.304201
  321        0.418209
  322        0.472106
  323        0.809185
  324        0.825633
  325        1.023456
  326        1.259609
  327        1.594706
  328        2.001247
  329        2.348361
  330        2.445644
  331        2.760790
  332        2.937729
  333        3.312146
  334        3.391597
  335        3.657026
  336        4.124640
  337        4.190864
  338        4.279443
  339        4.312017
  340        4.455346
  341        4.500289
  342        4.680268
  343        4.838457
  344        4.876354
  345        5.081985
  346        5.122556
  347        5.292361
  348        5.330255
  349        5.502063
  350        5.535917
  351        5.595705
  352        5.657672
  353        5.713158
  354        5.852196
  355        5.995735
  356        6.028441
  357        6.261607
  358        6.379357
  359        6.497467
  360        6.560323
  361        6.759181
  362        6.859284
  363        6.924301
  364        6.984408
  365        6.988273
  366        7.000375
  367        7.105856
  368        7.212501
  369        7.232825
  370        7.257769
  371        7.387245
  372        7.458597
 
  0.0000000E+00  0.2500000E+00  0.0000000E+00  0.1250000E+00
    1      -71.932628
    2      -71.924710
    3      -71.869914
    4      -71.857615
    5      -71.845647
    6      -71.832468
    7      -71.619919
    8      -71.615080
    9      -71.547455
   10      -71.541354
   11      -71.531258
   12      -71.526561
   13      -71.509110
   14      -71.494373
   15      -71.473404
   16      -71.469576
   17      -71.466565
   18      -71.462862
   19      -71.172785
   20      -71.164723
   21      -71.161559
   22      -71.159097
   23      -71.156659
   24      -71.141585
   25      -71.137434
   26      -71.134011
   27      -71.129193
   28      -71.128530
   29      -71.126582
   30      -71.124551
   31      -71.123559
   32      -71.122254
   33      -71.118081
   34      -71.117310
   35      -71.108697
   36      -71.105589
   37      -71.103544
   38      -71.096445
   39      -71.096056
   40      -71.094967
   41      -71.091555
   42      -71.090185
   43      -71.086896
   44      -71.085110
   45      -71.079473
   46      -71.079468
   47      -71.077977
   48      -71.071552
   49      -71.065744
   50      -71.061180
   51      -71.054017
   52      -71.051115
   53      -71.049858
   54      -71.046927
   55      -71.043274
   56      -71.040783
   57      -71.039445
   58      -71.038316
   59      -71.034516
   60      -71.023278
   61      -71.022853
   62      -71.011624
   63      -71.005878
   64      -71.004791
   65      -71.004306
   66      -70.997730
   67      -70.993867
   68      -70.993835
   69      -70.987090
   70      -70.979070
   71      -70.950220
   72      -70.946806
   73      -70.920467
   74      -70.911318
   75      -70.900120
   76      -70.896827
   77      -70.889054
   78      -70.886136
   79      -70.882675
   80      -70.871488
   81      -70.869850
   82      -70.867394
   83      -70.862087
   84      -70.859595
   85      -70.853823
   86      -70.848944
   87      -70.848166
   88      -70.848037
   89      -70.837303
   90      -70.835473
   91      -70.831587
   92      -70.824976
   93      -70.818775
   94      -70.813598
   95      -70.803408
   96      -70.800729
   97      -70.785141
   98      -70.783313
   99      -70.780499
  100      -70.775083
  101      -70.771833
  102      -70.770934
  103      -70.768049
  104      -70.765812
  105      -70.763883
  106      -70.762295
  107      -70.759571
  108      -70.694251
  109      -12.450237
  110      -12.057402
  111      -10.001643
  112       -8.628183
  113       -8.322772
  114       -7.692233
  115       -7.618742
  116       -7.352328
  117       -6.902645
  118       -6.860264
  119       -6.678228
  120       -6.676175
  121       -6.600253
  122       -6.440392
  123       -6.333863
  124       -6.299005
  125       -6.222946
  126       -6.134542
  127       -6.071230
  128       -6.033622
  129       -5.907968
  130       -5.882539
  131       -5.802151
  132       -5.714818
  133       -5.699051
  134       -5.602161
  135       -5.550998
  136       -5.511943
  137       -5.487849
  138       -5.474589
  139       -5.439915
  140       -5.437561
  141       -5.435220
  142       -5.399396
  143       -5.399369
  144       -5.368509
  145       -5.357118
  146       -5.330617
  147       -5.302446
  148       -5.273808
  149       -5.221830
  150       -5.217596
  151       -5.183508
  152       -5.132499
  153       -5.102701
  154       -5.100589
  155       -5.063381
  156       -5.059716
  157       -5.032643
  158       -4.999158
  159       -4.984420
  160       -4.930751
  161       -4.907892
  162       -4.866160
  163       -4.840015
  164       -4.816283
  165       -4.803222
  166       -4.777167
  167       -4.774197
  168       -4.739937
  169       -4.700108
  170       -4.656976
  171       -4.654543
  172       -4.589987
  173       -4.589797
  174       -4.572605
  175       -4.553364
  176       -4.515920
  177       -4.513542
  178       -4.482983
  179       -4.466873
  180       -4.426329
  181       -4.384442
  182       -4.381507
  183       -4.351488
  184       -4.349195
  185       -4.311598
  186       -4.293120
  187       -4.287027
  188       -4.257839
  189       -4.242491
  190       -4.239466
  191       -4.201313
  192       -4.197054
  193       -4.189457
  194       -4.174672
  195       -4.158323
  196       -4.152295
  197       -4.131224
  198       -4.127104
  199       -4.097395
  200       -4.058422
  201       -4.048227
  202       -4.039309
  203       -4.031951
  204       -4.021855
  205       -3.996545
  206       -3.992649
  207       -3.982804
  208       -3.967441
  209       -3.962619
  210       -3.934051
  211       -3.926878
  212       -3.921147
  213       -3.910561
  214       -3.908681
  215       -3.898082
  216       -3.891466
  217       -3.858035
  218       -3.840217
  219       -3.810844
  220       -3.808669
  221       -3.778457
  222       -3.774238
  223       -3.763676
  224       -3.754092
  225       -3.741944
  226       -3.726221
  227       -3.721695