PROCAR new format
# of k-points:    7         # of bands: 372         # of ions:  38

 k-point    1 :    0.00000000 0.00000000 0.00000000     weight = 0.06250000

band   1 # energy  -71.93262961 # occ.  2.00000000
 
ion      s      p      d    tot
  1  0.000  0.000  0.000  0.000
  2  0.000  0.000  0.000  0.000
  3  0.000  0.000  0.000  0.000
  4  0.000  0.000  0.000  0.000
  5  0.000  0.000  0.000  0.000
  6  0.000  0.000  0.000  0.000
  7  0.000  0.000  0.000  0.000
  8  0.000  0.000  0.000  0.000
  9  0.000  0.000  0.000  0.000
 10  0.000  0.000  0.000  0.000
 11  0.000  0.000  0.000  0.000
 12  0.000  0.000  0.000  0.000
 13  0.000  0.000  0.000  0.000
 14  0.000  0.000  0.000  0.000
 15  0.000  0.000  0.000  0.000
 16  0.000  0.000  0.000  0.000
 17  0.000  0.000  0.000  0.000
 18  0.000  0.000  0.000  0.000
 19  0.000  0.000  0.000  0.000
 20  0.000  0.000  0.000  0.000
 21  0.000  0.000  0.000  0.000
 22  0.000  0.000  0.000  0.000
 23  0.000  0.000  0.000  0.000
 24  0.000  0.000  0.000  0.000
 25  0.000  0.000  0.000  0.000
 26  0.000  0.000  0.000  0.000
 27  0.000  0.000  0.000  0.000
 28  0.000  0.000  0.000  0.000
 29  0.000  0.001  0.000  0.001
 30  0.000  0.000  0.000  0.000
 31  0.000  0.000  0.000  0.000
 32  0.000  0.012  0.000  0.012
 33  0.000  0.000  0.000  0.000
 34  0.000  0.971  0.000  0.971
 35  0.000  0.012  0.000  0.012
 36  0.000  0.000  0.000  0.000
 37  0.000  0.000  0.000  0.000
 38  0.000  0.000  0.000  0.000
tot  0.000  0.996  0.000  0.996
 
band   2 # energy  -71.92479598 # occ.  2.00000000
 
ion      s      p      d    tot
  1  0.000  0.000  0.000  0.000
  2  0.000  0.000  0.000  0.000
  3  0.000  0.000  0.000  0.000
  4  0.000  0.000  0.000  0.000
  5  0.000  0.000  0.000  0.000
  6  0.000  0.000  0.000  0.000
  7  0.000  0.000  0.000  0.000
  8  0.000  0.000  0.000  0.000
  9  0.000  0.000  0.000  0.000
 10  0.000  0.000  0.000  0.000
 11  0.000  0.000  0.000  0.000
 12  0.000  0.000  0.000  0.000
 13  0.000  0.000  0.000  0.000
 14  0.000  0.000  0.000  0.000
 15  0.000  0.000  0.000  0.000
 16  0.000  0.000  0.000  0.000
 17  0.000  0.000  0.000  0.000
 18  0.000  0.000  0.000  0.000
 19  0.000  0.000  0.000  0.000
 20  0.000  0.000  0.000  0.000
 21  0.000  0.000  0.000  0.000
 22  0.000  0.000  0.000  0.000
 23  0.000  0.000  0.000  0.000
 24  0.000  0.000  0.000  0.000
 25  0.000  0.000  0.000  0.000
 26  0.000  0.000  0.000  0.000
 27  0.000  0.000  0.000  0.000
 28  0.000  0.007  0.000  0.007
 29  0.000  0.981  0.000  0.981
 30  0.000  0.000  0.000  0.000
 31  0.000  0.007  0.000  0.007
 32  0.000  0.000  0.000  0.000
 33  0.000  0.000  0.000  0.000
 34  0.000  0.001  0.000  0.001
 35  0.000  0.000  0.000  0.000
 36  0.000  0.000  0.000  0.000
 37  0.000  0.000  0.000  0.000
 38  0.000  0.000  0.000  0.000
tot  0.000  0.996  0.000  0.996
 
band   3 # energy  -71.87017535 # occ.  2.00000000
 
ion      s      p      d    tot
  1  0.000  0.000  0.000  0.000
  2  0.000  0.000  0.000  0.000
  3  0.000  0.000  0.000  0.000
  4  0.000  0.000  0.000  0.000
  5  0.000  0.000  0.000  0.000
  6  0.000  0.000  0.000  0.000
  7  0.000  0.000  0.000  0.000
  8  0.000  0.000  0.000  0.000
  9  0.000  0.000  0.000  0.000
 10  0.000  0.000  0.000  0.000
 11  0.000  0.000  0.000  0.000
 12  0.000  0.000  0.000  0.000
 13  0.000  0.000  0.000  0.000
 14  0.000  0.000  0.000  0.000
 15  0.000  0.000  0.000  0.000
 16  0.000  0.000  0.000  0.000
 17  0.000  0.000  0.000  0.000
 18  0.000  0.000  0.000  0.000
 19  0.000  0.000  0.000  0.000
 20  0.000  0.000  0.000  0.000
 21  0.000  0.000  0.000  0.000
 22  0.000  0.000  0.000  0.000
 23  0.000  0.000  0.000  0.000
 24  0.000  0.000  0.000  0.000
 25  0.000  0.000  0.000  0.000
 26  0.000  0.000  0.000  0.000
 27  0.000  0.000  0.000  0.000
 28  0.000  0.001  0.000  0.001
 29  0.000  0.000  0.000  0.000
 30  0.000  0.000  0.000  0.000
 31  0.000  0.001  0.000  0.001
 32  0.000  0.483  0.000  0.483
 33  0.000  0.000  0.000  0.000
 34  0.000  0.023  0.000  0.023
 35  0.000  0.487  0.000  0.487
 36  0.000  0.000  0.000  0.000
 37  0.000  0.000  0.000  0.000
 38  0.000  0.000  0.000  0.000
tot  0.000  0.996  0.000  0.996
 
band   4 # energy  -71.85774982 # occ.  2.00000000
 
ion      s      p      d    tot
  1  0.000  0.000  0.000  0.000
  2  0.000  0.000  0.000  0.000
  3  0.000  0.000  0.000  0.000
  4  0.000  0.000  0.000  0.000
  5  0.000  0.000  0.000  0.000
  6  0.000  0.000  0.000  0.000
  7  0.000  0.000  0.000  0.000
  8  0.000  0.000  0.000  0.000
  9  0.000  0.000  0.000  0.000
 10  0.000  0.000  0.000  0.000
 11  0.000  0.000  0.000  0.000
 12  0.000  0.000  0.000  0.000
 13  0.000  0.000  0.000  0.000
 14  0.000  0.000  0.000  0.000
 15  0.000  0.000  0.000  0.000
 16  0.000  0.000  0.000  0.000
 17  0.000  0.000  0.000  0.000
 18  0.000  0.000  0.000  0.000
 19  0.000  0.000  0.000  0.000
 20  0.000  0.000  0.000  0.000
 21  0.000  0.000  0.000  0.000
 22  0.000  0.000  0.000  0.000
 23  0.000  0.000  0.000  0.000
 24  0.000  0.000  0.000  0.000
 25  0.000  0.000  0.000  0.000
 26  0.000  0.000  0.000  0.000
 27  0.000  0.000  0.000  0.000
 28  0.000  0.001  0.000  0.001
 29  0.000  0.006  0.000  0.006
 30  0.000  0.000  0.000  0.000
 31  0.000  0.001  0.000  0.001
 32  0.000  0.496  0.000  0.496
 33  0.000  0.000  0.000  0.000
 34  0.000  0.001  0.000  0.001
 35  0.000  0.492  0.000  0.492
 36  0.000  0.000  0.000  0.000
 37  0.000  0.000  0.000  0.000
 38  0.000  0.000  0.000  0.000
tot  0.000  0.997  0.000  0.997
 
band   5 # energy  -71.84585586 # occ.  2.00000000
 
ion      s      p      d    tot
  1  0.000  0.000  0.000  0.000
  2  0.000  0.000  0.000  0.000
  3  0.000  0.000  0.000  0.000
  4  0.000  0.000  0.000  0.000
  5  0.000  0.000  0.000  0.000
  6  0.000  0.000  0.000  0.000
  7  0.000  0.000  0.000  0.000
  8  0.000  0.000  0.000  0.000
  9  0.000  0.000  0.000  0.000
 10  0.000  0.000  0.000  0.000
 11  0.000  0.000  0.000  0.000
 12  0.000  0.000  0.000  0.000
 13  0.000  0.000  0.000  0.000
 14  0.000  0.000  0.000  0.000
 15  0.000  0.000  0.000  0.000
 16  0.000  0.000  0.000  0.000
 17  0.000  0.000  0.000  0.000
 18  0.000  0.000  0.000  0.000
 19  0.000  0.000  0.000  0.000
 20  0.000  0.000  0.000  0.000
 21  0.000  0.000  0.000  0.000
 22  0.000  0.000  0.000  0.000
 23  0.000  0.000  0.000  0.000
 24  0.000  0.000  0.000  0.000
 25  0.000  0.000  0.000  0.000
 26  0.000  0.000  0.000  0.000
 27  0.000  0.000  0.000  0.000
 28  0.000  0.491  0.000  0.491
 29  0.000  0.014  0.000  0.014
 30  0.000  0.000  0.000  0.000
 31  0.000  0.488  0.000  0.488
 32  0.000  0.001  0.000  0.001
 33  0.000  0.000  0.000  0.000
 34  0.000  0.001  0.000  0.001
 35  0.000  0.001  0.000  0.001
 36  0.000  0.000  0.000  0.000
 37  0.000  0.000  0.000  0.000
 38  0.000  0.000  0.000  0.000
tot  0.000  0.996  0.000  0.996
 
band   6 # energy  -71.83261986 # occ.  2.00000000
 
ion      s      p      d    tot
  1  0.000  0.000  0.000  0.000
  2  0.000  0.000  0.000  0.000
  3  0.000  0.000  0.000  0.000
  4  0.000  0.000  0.000  0.000
  5  0.000  0.000  0.000  0.000
  6  0.000  0.000  0.000  0.000
  7  0.000  0.000  0.000  0.000
  8  0.000  0.000  0.000  0.000
  9  0.000  0.000  0.000  0.000
 10  0.000  0.000  0.000  0.000
 11  0.000  0.000  0.000  0.000
 12  0.000  0.000  0.000  0.000
 13  0.000  0.000  0.000  0.000
 14  0.000  0.000  0.000  0.000
 15  0.000  0.000  0.000  0.000
 16  0.000  0.000  0.000  0.000
 17  0.000  0.000  0.000  0.000
 18  0.000  0.000  0.000  0.000
 19  0.000  0.000  0.000  0.000
 20  0.000  0.000  0.000  0.000
 21  0.000  0.000  0.000  0.000
 22  0.000  0.000  0.000  0.000
 23  0.000  0.000  0.000  0.000
 24  0.000  0.000  0.000  0.000
 25  0.000  0.000  0.000  0.000
 26  0.000  0.000  0.000  0.000
 27  0.000  0.000  0.000  0.000
 28  0.000  0.492  0.000  0.492
 29  0.000  0.000  0.000  0.000
 30  0.000  0.000  0.000  0.000
 31  0.000  0.495  0.000  0.495
 32  0.000  0.001  0.000  0.001
 33  0.000  0.000  0.000  0.000
 34  0.000  0.007  0.000  0.007
 35  0.000  0.001  0.000  0.001
 36  0.000  0.000  0.000  0.000
 37  0.000  0.000  0.000  0.000
 38  0.000  0.000  0.000  0.000
tot  0.000  0.997  0.000  0.997
 
band   7 # energy  -71.62024684 # occ.  2.00000000
 
ion      s      p      d    tot
  1  0.000  0.000  0.000  0.000
  2  0.000  0.000  0.000  0.000
  3  0.000  0.000  0.000  0.000
  4  0.000  0.000  0.000  0.000
  5  0.000  0.000  0.000  0.000
  6  0.000  0.000  0.000  0.000
  7  0.000  0.000  0.000  0.000
  8  0.000  0.000  0.000  0.000
  9  0.000  0.000  0.000  0.000
 10  0.000  0.000  0.000  0.000
 11  0.000  0.000  0.000  0.000
 12  0.000  0.000  0.000  0.000
 13  0.000  0.000  0.000  0.000
 14  0.000  0.000  0.000  0.000
 15  0.000  0.000  0.000  0.000
 16  0.000  0.000  0.000  0.000
 17  0.000  0.000  0.000  0.000
 18  0.000  0.000  0.000  0.000
 19  0.000  0.000  0.000  0.000
 20  0.000  0.000  0.000  0.000
 21  0.000  0.000  0.000  0.000
 22  0.000  0.000  0.000  0.000
 23  0.000  0.000  0.000  0.000
 24  0.000  0.000  0.000  0.000
 25  0.000  0.000  0.000  0.000
 26  0.000  0.000  0.000  0.000
 27  0.000  0.000  0.000  0.000
 28  0.000  0.006  0.000  0.006
 29  0.000  0.743  0.000  0.743
 30  0.000  0.000  0.000  0.000
 31  0.000  0.006  0.000  0.006
 32  0.000  0.018  0.000  0.018
 33  0.000  0.000  0.000  0.000
 34  0.000  0.204  0.000  0.204
 35  0.000  0.018  0.000  0.018
 36  0.000  0.000  0.000  0.000
 37  0.000  0.000  0.000  0.000
 38  0.000  0.000  0.000  0.000
tot  0.000  0.996  0.000  0.996
 
band   8 # energy  -71.61510663 # occ.  2.00000000
 
ion      s      p      d    tot
  1  0.000  0.000  0.000  0.000
  2  0.000  0.000  0.000  0.000
  3  0.000  0.000  0.000  0.000
  4  0.000  0.000  0.000  0.000
  5  0.000  0.000  0.000  0.000
  6  0.000  0.000  0.000  0.000
  7  0.000  0.000  0.000  0.000
  8  0.000  0.000  0.000  0.000
  9  0.000  0.000  0.000  0.000
 10  0.000  0.000  0.000  0.000
 11  0.000  0.000  0.000  0.000
 12  0.000  0.000  0.000  0.000
 13  0.000  0.000  0.000  0.000
 14  0.000  0.000  0.000  0.000
 15  0.000  0.000  0.000  0.000
 16  0.000  0.000  0.000  0.000
 17  0.000  0.000  0.000  0.000
 18  0.000  0.000  0.000  0.000
 19  0.000  0.000  0.000  0.000
 20  0.000  0.000  0.000  0.000
 21  0.000  0.000  0.000  0.000
 22  0.000  0.000  0.000  0.000
 23  0.000  0.000  0.000  0.000
 24  0.000  0.000  0.000  0.000
 25  0.000  0.000  0.000  0.000
 26  0.000  0.000  0.000  0.000
 27  0.000  0.000  0.000  0.000
 28  0.000  0.012  0.000  0.012
 29  0.000  0.210  0.000  0.210
 30  0.000  0.000  0.000  0.000
 31  0.000  0.012  0.000  0.012
 32  0.000  0.003  0.000  0.003
 33  0.000  0.000  0.000  0.000
 34  0.000  0.755  0.000  0.755
 35  0.000  0.003  0.000  0.003
 36  0.000  0.000  0.000  0.000
 37  0.000  0.000  0.000  0.000
 38  0.000  0.000  0.000  0.000
tot  0.000  0.997  0.000  0.997
 
band   9 # energy  -71.54739596 # occ.  2.00000000
 
ion      s      p      d    tot
  1  0.000  0.000  0.000  0.000
  2  0.000  0.000  0.000  0.000
  3  0.000  0.000  0.000  0.000
  4  0.000  0.000  0.000  0.000
  5  0.000  0.000  0.000  0.000
  6  0.000  0.000  0.000  0.000
  7  0.000  0.000  0.000  0.000
  8  0.000  0.000  0.000  0.000
  9  0.000  0.000  0.000  0.000
 10  0.000  0.000  0.000  0.000
 11  0.000  0.000  0.000  0.000
 12  0.000  0.000  0.000  0.000
 13  0.000  0.000  0.000  0.000
 14  0.000  0.000  0.000  0.000
 15  0.000  0.000  0.000  0.000
 16  0.000  0.000  0.000  0.000
 17  0.000  0.000  0.000  0.000
 18  0.000  0.000  0.000  0.000
 19  0.000  0.000  0.000  0.000
 20  0.000  0.000  0.000  0.000
 21  0.000  0.000  0.000  0.000
 22  0.000  0.000  0.000  0.000
 23  0.000  0.000  0.000  0.000
 24  0.000  0.000  0.000  0.000
 25  0.000  0.000  0.000  0.000
 26  0.000  0.000  0.000  0.000
 27  0.000  0.000  0.000  0.000
 28  0.000  0.019  0.000  0.019
 29  0.000  0.870  0.000  0.870
 30  0.000  0.000  0.000  0.000
 31  0.000  0.019  0.000  0.019
 32  0.000  0.042  0.000  0.042
 33  0.000  0.000  0.000  0.000
 34  0.000  0.004  0.000  0.004
 35  0.000  0.042  0.000  0.042
 36  0.000  0.000  0.000  0.000
 37  0.000  0.000  0.000  0.000
 38  0.000  0.000  0.000  0.000
tot  0.000  0.996  0.000  0.997
 
band  10 # energy  -71.54109120 # occ.  2.00000000
 
ion      s      p      d    tot
  1  0.000  0.000  0.000  0.000
  2  0.000  0.000  0.000  0.000
  3  0.000  0.000  0.000  0.000
  4  0.000  0.000  0.000  0.000
  5  0.000  0.000  0.000  0.000
  6  0.000  0.000  0.000  0.000
  7  0.000  0.000  0.000  0.000
  8  0.000  0.000  0.000  0.000
  9  0.000  0.000  0.000  0.000
 10  0.000  0.000  0.000  0.000
 11  0.000  0.000  0.000  0.000
 12  0.000  0.000  0.000  0.000
 13  0.000  0.000  0.000  0.000
 14  0.000  0.000  0.000  0.000
 15  0.000  0.000  0.000  0.000
 16  0.000  0.000  0.000  0.000
 17  0.000  0.000  0.000  0.000
 18  0.000  0.000  0.000  0.000
 19  0.000  0.000  0.000  0.000
 20  0.000  0.000  0.000  0.000
 21  0.000  0.000  0.000  0.000
 22  0.000  0.000  0.000  0.000
 23  0.000  0.000  0.000  0.000
 24  0.000  0.000  0.000  0.000
 25  0.000  0.000  0.000  0.000
 26  0.000  0.000  0.000  0.000
 27  0.000  0.000  0.000  0.000
 28  0.000  0.082  0.000  0.082
 29  0.000  0.119  0.000  0.119
 30  0.000  0.000  0.000  0.000
 31  0.000  0.082  0.000  0.082
 32  0.000  0.332  0.000  0.332
 33  0.000  0.000  0.000  0.000
 34  0.000  0.048  0.000  0.048
 35  0.000  0.331  0.000  0.331
 36  0.000  0.000  0.000  0.000
 37  0.000  0.000  0.000  0.000
 38  0.000  0.000  0.000  0.000
tot  0.000  0.996  0.000  0.996
 
band  11 # energy  -71.53141698 # occ.  2.00000000
 
ion      s      p      d    tot
  1  0.000  0.000  0.000  0.000
  2  0.000  0.000  0.000  0.000
  3  0.000  0.000  0.000  0.000
  4  0.000  0.000  0.000  0.000
  5  0.000  0.000  0.000  0.000
  6  0.000  0.000  0.000  0.000
  7  0.000  0.000  0.000  0.000
  8  0.000  0.000  0.000  0.000
  9  0.000  0.000  0.000  0.000
 10  0.000  0.000  0.000  0.000
 11  0.000  0.000  0.000  0.000
 12  0.000  0.000  0.000  0.000
 13  0.000  0.000  0.000  0.000
 14  0.000  0.000  0.000  0.000
 15  0.000  0.000  0.000  0.000
 16  0.000  0.000  0.000  0.000
 17  0.000  0.000  0.000  0.000
 18  0.000  0.000  0.000  0.000
 19  0.000  0.000  0.000  0.000
 20  0.000  0.000  0.000  0.000
 21  0.000  0.000  0.000  0.000
 22  0.000  0.000  0.000  0.000
 23  0.000  0.000  0.000  0.000
 24  0.000  0.000  0.000  0.000
 25  0.000  0.000  0.000  0.000
 26  0.000  0.000  0.000  0.000
 27  0.000  0.000  0.000  0.000
 28  0.000  0.007  0.000  0.007
 29  0.000  0.000  0.000  0.000
 30  0.000  0.000  0.000  0.000
 31  0.000  0.007  0.000  0.007
 32  0.000  0.024  0.000  0.024
 33  0.000  0.000  0.000  0.000
 34  0.000  0.935  0.000  0.935
 35  0.000  0.023  0.000  0.023
 36  0.000  0.000  0.000  0.000
 37  0.000  0.000  0.000  0.000
 38  0.000  0.000  0.000  0.000
tot  0.000  0.997  0.000  0.997
 
band  12 # energy  -71.52663232 # occ.  2.00000000
 
ion      s      p      d    tot
  1  0.000  0.000  0.000  0.000
  2  0.000  0.000  0.000  0.000
  3  0.000  0.000  0.000  0.000
  4  0.000  0.000  0.000  0.000
  5  0.000  0.000  0.000  0.000
  6  0.000  0.000  0.000  0.000
  7  0.000  0.000  0.000  0.000
  8  0.000  0.000  0.000  0.000
  9  0.000  0.000  0.000  0.000
 10  0.000  0.000  0.000  0.000
 11  0.000  0.000  0.000  0.000
 12  0.000  0.000  0.000  0.000
 13  0.000  0.000  0.000  0.000
 14  0.000  0.000  0.000  0.000
 15  0.000  0.000  0.000  0.000
 16  0.000  0.000  0.000  0.000
 17  0.000  0.000  0.000  0.000
 18  0.000  0.000  0.000  0.000
 19  0.000  0.000  0.000  0.000
 20  0.000  0.000  0.000  0.000
 21  0.000  0.000  0.000  0.000
 22  0.000  0.000  0.000  0.000
 23  0.000  0.000  0.000  0.000
 24  0.000  0.000  0.000  0.000
 25  0.000  0.000  0.000  0.000
 26  0.000  0.000  0.000  0.000
 27  0.000  0.000  0.000  0.000
 28  0.000  0.091  0.000  0.091
 29  0.000  0.028  0.000  0.028
 30  0.000  0.000  0.000  0.000
 31  0.000  0.090  0.000  0.090
 32  0.000  0.387  0.000  0.387
 33  0.000  0.000  0.000  0.000
 34  0.000  0.012  0.000  0.012
 35  0.000  0.388  0.000  0.388
 36  0.000  0.000  0.000  0.000
 37  0.000  0.000  0.000  0.000
 38  0.000  0.000  0.000  0.000
tot  0.000  0.997  0.000  0.997
 
band  13 # energy  -71.50981157 # occ.  2.00000000
 
ion      s      p      d    tot
  1  0.000  0.000  0.000  0.000
  2  0.000  0.000  0.000  0.000
  3  0.000  0.000  0.000  0.000
  4  0.000  0.000  0.000  0.000
  5  0.000  0.000  0.000  0.000
  6  0.000  0.000  0.000  0.000
  7  0.000  0.000  0.000  0.000
  8  0.000  0.000  0.000  0.000
  9  0.000  0.000  0.000  0.000
 10  0.000  0.000  0.000  0.000
 11  0.000  0.000  0.000  0.000
 12  0.000  0.000  0.000  0.000
 13  0.000  0.000  0.000  0.000
 14  0.000  0.000  0.000  0.000
 15  0.000  0.000  0.000  0.000
 16  0.000  0.000  0.000  0.000
 17  0.000  0.000  0.000  0.000
 18  0.000  0.000  0.000  0.000
 19  0.000  0.000  0.000  0.000
 20  0.000  0.000  0.000  0.000
 21  0.000  0.000  0.000  0.000
 22  0.000  0.000  0.000  0.000
 23  0.000  0.000  0.000  0.000
 24  0.000  0.000  0.000  0.000
 25  0.000  0.000  0.000  0.000
 26  0.000  0.000  0.000  0.000
 27  0.000  0.000  0.000  0.000
 28  0.000  0.392  0.000  0.392
 29  0.000  0.001  0.000  0.001
 30  0.000  0.000  0.000  0.000
 31  0.000  0.394  0.000  0.394
 32  0.000  0.104  0.000  0.104
 33  0.000  0.002  0.000  0.002
 34  0.000  0.000  0.000  0.000
 35  0.000  0.104  0.000  0.104
 36  0.000  0.000  0.000  0.000
 37  0.000  0.000  0.000  0.000
 38  0.000  0.000  0.000  0.000
tot  0.000  0.997  0.000  0.997
 
band  14 # energy  -71.49473252 # occ.  2.00000000
 
ion      s      p      d    tot
  1  0.000  0.000  0.000  0.000
  2  0.000  0.000  0.000  0.000
  3  0.000  0.000  0.000  0.000
  4  0.000  0.000  0.000  0.000
  5  0.000  0.000  0.000  0.000
  6  0.000  0.000  0.000  0.000
  7  0.000  0.000  0.000  0.000
  8  0.000  0.000  0.000  0.000
  9  0.000  0.000  0.000  0.000
 10  0.000  0.000  0.000  0.000
 11  0.000  0.000  0.000  0.000
 12  0.000  0.000  0.000  0.000
 13  0.000  0.000  0.000  0.000
 14  0.000  0.000  0.000  0.000
 15  0.000  0.000  0.000  0.000
 16  0.000  0.000  0.000  0.000
 17  0.000  0.000  0.000  0.000
 18  0.000  0.000  0.000  0.000
 19  0.000  0.000  0.000  0.000
 20  0.000  0.000  0.000  0.000
 21  0.000  0.000  0.000  0.000
 22  0.000  0.000  0.000  0.000
 23  0.000  0.000  0.000  0.000
 24  0.000  0.000  0.000  0.000
 25  0.000  0.000  0.000  0.000
 26  0.000  0.000  0.000  0.000
 27  0.000  0.000  0.000  0.000
 28  0.000  0.397  0.000  0.397
 29  0.000  0.001  0.000  0.001
 30  0.000  0.000  0.000  0.000
 31  0.000  0.396  0.000  0.396
 32  0.000  0.096  0.000  0.096
 33  0.000  0.001  0.000  0.001
 34  0.000  0.011  0.000  0.011
 35  0.000  0.096  0.000  0.096
 36  0.000  0.000  0.000  0.000
 37  0.000  0.000  0.000  0.000
 38  0.000  0.000  0.000  0.000
tot  0.000  0.997  0.000  0.997
 
band  15 # energy  -71.47354223 # occ.  2.00000000
 
ion      s      p      d    tot
  1  0.000  0.000  0.000  0.000
  2  0.000  0.000  0.000  0.000
  3  0.000  0.000  0.000  0.000
  4  0.000  0.000  0.000  0.000
  5  0.000  0.000  0.000  0.000
  6  0.000  0.000  0.000  0.000
  7  0.000  0.000  0.000  0.000
  8  0.000  0.000  0.000  0.000
  9  0.000  0.000  0.000  0.000
 10  0.000  0.000  0.000  0.000
 11  0.000  0.000  0.000  0.000
 12  0.000  0.000  0.000  0.000
 13  0.000  0.000  0.000  0.000
 14  0.000  0.000  0.000  0.000
 15  0.000  0.000  0.000  0.000
 16  0.000  0.000  0.000  0.000
 17  0.000  0.000  0.000  0.000
 18  0.000  0.000  0.000  0.000
 19  0.000  0.000  0.000  0.000
 20  0.000  0.000  0.000  0.000
 21  0.000  0.000  0.000  0.000
 22  0.000  0.001  0.000  0.001
 23  0.000  0.000  0.000  0.000
 24  0.000  0.000  0.000  0.000
 25  0.000  0.000  0.000  0.000
 26  0.000  0.000  0.000  0.000
 27  0.000  0.000  0.000  0.000
 28  0.000  0.037  0.000  0.037
 29  0.000  0.003  0.000  0.003
 30  0.000  0.000  0.000  0.000
 31  0.000  0.037  0.000  0.037
 32  0.000  0.453  0.000  0.453
 33  0.000  0.000  0.000  0.000
 34  0.000  0.008  0.000  0.008
 35  0.000  0.458  0.000  0.458
 36  0.000  0.000  0.000  0.000
 37  0.000  0.000  0.000  0.000
 38  0.000  0.000  0.000  0.000
tot  0.000  0.997  0.000  0.997
 
band  16 # energy  -71.46983961 # occ.  2.00000000
 
ion      s      p      d    tot
  1  0.000  0.000  0.000  0.000
  2  0.000  0.000  0.000  0.000
  3  0.000  0.000  0.000  0.000
  4  0.000  0.000  0.000  0.000
  5  0.000  0.000  0.000  0.000
  6  0.000  0.000  0.000  0.000
  7  0.000  0.000  0.000  0.000
  8  0.000  0.000  0.000  0.000
  9  0.000  0.000  0.000  0.000
 10  0.000  0.000  0.000  0.000
 11  0.000  0.000  0.000  0.000
 12  0.000  0.000  0.000  0.000
 13  0.000  0.000  0.000  0.000
 14  0.000  0.000  0.000  0.000
 15  0.000  0.000  0.000  0.000
 16  0.000  0.000  0.000  0.000
 17  0.000  0.000  0.000  0.000
 18  0.000  0.000  0.000  0.000
 19  0.000  0.000  0.000  0.000
 20  0.000  0.000  0.000  0.000
 21  0.000  0.001  0.000  0.001
 22  0.000  0.000  0.000  0.000
 23  0.000  0.000  0.000  0.000
 24  0.000  0.000  0.000  0.000
 25  0.000  0.000  0.000  0.000
 26  0.000  0.000  0.000  0.000
 27  0.000  0.000  0.000  0.000
 28  0.000  0.459  0.000  0.459
 29  0.000  0.003  0.000  0.003
 30  0.000  0.000  0.000  0.000
 31  0.000  0.455  0.000  0.455
 32  0.000  0.038  0.000  0.038
 33  0.000  0.000  0.000  0.000
 34  0.000  0.000  0.000  0.000
 35  0.000  0.039  0.000  0.039
 36  0.000  0.000  0.000  0.000
 37  0.000  0.000  0.000  0.000
 38  0.000  0.000  0.000  0.000
tot  0.000  0.997  0.000  0.997
 
band  17 # energy  -71.46671404 # occ.  2.00000000
 
ion      s      p      d    tot
  1  0.000  0.000  0.000  0.000
  2  0.000  0.000  0.000  0.000
  3  0.000  0.000  0.000  0.000
  4  0.000  0.000  0.000  0.000
  5  0.000  0.000  0.000  0.000
  6  0.000  0.000  0.000  0.000
  7  0.000  0.000  0.000  0.000
  8  0.000  0.000  0.000  0.000
  9  0.000  0.000  0.000  0.000
 10  0.000  0.000  0.000  0.000
 11  0.000  0.000  0.000  0.000
 12  0.000  0.000  0.000  0.000
 13  0.000  0.000  0.000  0.000
 14  0.000  0.000  0.000  0.000
 15  0.000  0.000  0.000  0.000
 16  0.000  0.000  0.000  0.000
 17  0.000  0.000  0.000  0.000
 18  0.000  0.000  0.000  0.000
 19  0.000  0.000  0.000  0.000
 20  0.000  0.000  0.000  0.000
 21  0.000  0.000  0.000  0.000
 22  0.000  0.000  0.000  0.000
 23  0.000  0.000  0.000  0.000
 24  0.000  0.000  0.000  0.000
 25  0.000  0.000  0.000  0.000
 26  0.000  0.000  0.000  0.000
 27  0.000  0.000  0.000  0.000
 28  0.000  0.062  0.000  0.062
 29  0.000  0.005  0.000  0.005
 30  0.000  0.000  0.000  0.000
 31  0.000  0.063  0.000  0.063
 32  0.000  0.435  0.000  0.435
 33  0.000  0.000  0.000  0.000
 34  0.000  0.000  0.000  0.000
 35  0.000  0.430  0.000  0.430
 36  0.000  0.000  0.000  0.000
 37  0.000  0.000  0.000  0.000
 38  0.000  0.000  0.000  0.000
tot  0.000  0.997  0.000  0.997
 
band  18 # energy  -71.46297644 # occ.  2.00000000
 
ion      s      p      d    tot
  1  0.000  0.000  0.000  0.000
  2  0.000  0.000  0.000  0.000
  3  0.000  0.000  0.000  0.000
  4  0.000  0.000  0.000  0.000
  5  0.000  0.000  0.000  0.000
  6  0.000  0.000  0.000  0.000
  7  0.000  0.000  0.000  0.000
  8  0.000  0.000  0.000  0.000
  9  0.000  0.000  0.000  0.000
 10  0.000  0.000  0.000  0.000
 11  0.000  0.000  0.000  0.000
 12  0.000  0.000  0.000  0.000
 13  0.000  0.000  0.000  0.000
 14  0.000  0.000  0.000  0.000
 15  0.000  0.000  0.000  0.000
 16  0.000  0.000  0.000  0.000
 17  0.000  0.000  0.000  0.000
 18  0.000  0.000  0.000  0.000
 19  0.000  0.000  0.000  0.000
 20  0.000  0.000  0.000  0.000
 21  0.000  0.000  0.000  0.000
 22  0.000  0.000  0.000  0.000
 23  0.000  0.000  0.000  0.000
 24  0.000  0.000  0.000  0.000
 25  0.000  0.000  0.000  0.000
 26  0.000  0.000  0.000  0.000
 27  0.000  0.000  0.000  0.000
 28  0.000  0.430  0.000  0.430
 29  0.000  0.002  0.000  0.002
 30  0.000  0.000  0.000  0.000
 31  0.000  0.434  0.000  0.434
 32  0.000  0.062  0.000  0.062
 33  0.000  0.000  0.000  0.000
 34  0.000  0.007  0.000  0.007
 35  0.000  0.061  0.000  0.061
 36  0.000  0.000  0.000  0.000
 37  0.000  0.000  0.000  0.000
 38  0.000  0.000  0.000  0.000
tot  0.000  0.997  0.000  0.997
 
band  19 # energy  -71.15974039 # occ.  2.00000000
 
ion      s      p      d    tot
  1  0.000  0.000  0.000  0.000
  2  0.000  0.001  0.000  0.001
  3  0.000  0.000  0.000  0.000
  4  0.000  0.000  0.000  0.000
  5  0.000  0.000  0.000  0.000
  6  0.000  0.000  0.000  0.000
  7  0.000  0.000  0.000  0.000
  8  0.000  0.000  0.000  0.000
  9  0.000  0.000  0.000  0.000
 10  0.000  0.047  0.000  0.047
 11  0.000  0.310  0.000  0.310
 12  0.000  0.035  0.000  0.035
 13  0.000  0.082  0.000  0.082
 14  0.000  0.094  0.000  0.094
 15  0.000  0.026  0.000  0.026
 16  0.000  0.104  0.000  0.104
 17  0.000  0.271  0.000  0.271
 18  0.000  0.001  0.000  0.001
 19  0.000  0.001  0.000  0.001
 20  0.000  0.009  0.000  0.009
 21  0.000  0.000  0.000  0.000
 22  0.000  0.000  0.000  0.000
 23  0.000  0.006  0.000  0.006
 24  0.000  0.001  0.000  0.001
 25  0.000  0.001  0.000  0.001
 26  0.000  0.004  0.000  0.004
 27  0.000  0.001  0.000  0.001
 28  0.000  0.000  0.000  0.000
 29  0.000  0.000  0.000  0.000
 30  0.000  0.000  0.000  0.000
 31  0.000  0.000  0.000  0.000
 32  0.000  0.000  0.000  0.000
 33  0.000  0.000  0.000  0.000
 34  0.000  0.000  0.000  0.000
 35  0.000  0.000  0.000  0.000
 36  0.000  0.000  0.000  0.000
 37  0.000  0.000  0.000  0.000
 38  0.000  0.000  0.000  0.000
tot  0.000  0.996  0.000  0.996
 
band  20 # energy  -71.15957151 # occ.  2.00000000
 
ion      s      p      d    tot
  1  0.000  0.000  0.000  0.000
  2  0.000  0.000  0.000  0.000
  3  0.000  0.000  0.000  0.000
  4  0.000  0.000  0.000  0.000
  5  0.000  0.001  0.000  0.001
  6  0.000  0.000  0.000  0.000
  7  0.000  0.000  0.000  0.000
  8  0.000  0.001  0.000  0.001
  9  0.000  0.000  0.000  0.000
 10  0.000  0.000  0.000  0.000
 11  0.000  0.105  0.000  0.105
 12  0.000  0.023  0.000  0.023
 13  0.000  0.069  0.000  0.069
 14  0.000  0.533  0.000  0.533
 15  0.000  0.033  0.000  0.033
 16  0.000  0.048  0.000  0.048
 17  0.000  0.146  0.000  0.146
 18  0.000  0.013  0.000  0.013
 19  0.000  0.000  0.000  0.000
 20  0.000  0.009  0.000  0.009
 21  0.000  0.000  0.000  0.000
 22  0.000  0.000  0.000  0.000
 23  0.000  0.012  0.000  0.012
 24  0.000  0.001  0.000  0.001
 25  0.000  0.000  0.000  0.000
 26  0.000  0.000  0.000  0.000
 27  0.000  0.001  0.000  0.001
 28  0.000  0.000  0.000  0.000
 29  0.000  0.000  0.000  0.000
 30  0.000  0.000  0.000  0.000
 31  0.000  0.000  0.000  0.000
 32  0.000  0.000  0.000  0.000
 33  0.000  0.000  0.000  0.000
 34  0.000  0.000  0.000  0.000
 35  0.000  0.000  0.000  0.000
 36  0.000  0.000  0.000  0.000
 37  0.000  0.000  0.000  0.000
 38  0.000  0.000  0.000  0.000
tot  0.000  0.996  0.000  0.996
 
band  21 # energy  -71.15675819 # occ.  2.00000000
 
ion      s      p      d    tot
  1  0.000  0.000  0.000  0.000
  2  0.000  0.000  0.000  0.000
  3  0.000  0.000  0.000  0.000
  4  0.000  0.000  0.000  0.000
  5  0.000  0.001  0.000  0.001
  6  0.000  0.000  0.000  0.000
  7  0.000  0.000  0.000  0.000
  8  0.000  0.001  0.000  0.001
  9  0.000  0.000  0.000  0.000
 10  0.000  0.004  0.000  0.004
 11  0.000  0.275  0.000  0.275
 12  0.000  0.033  0.000  0.033
 13  0.000  0.151  0.000  0.151
 14  0.000  0.022  0.000  0.022
 15  0.000  0.032  0.000  0.032
 16  0.000  0.156  0.000  0.156
 17  0.000  0.274  0.000  0.274
 18  0.000  0.003  0.000  0.003
 19  0.000  0.000  0.000  0.000
 20  0.000  0.002  0.000  0.002
 21  0.000  0.000  0.000  0.000
 22  0.000  0.001  0.000  0.001
 23  0.000  0.002  0.000  0.002
 24  0.000  0.003  0.000  0.003
 25  0.000  0.000  0.000  0.000
 26  0.000  0.032  0.000  0.032
 27  0.000  0.003  0.000  0.003
 28  0.000  0.000  0.000  0.000
 29  0.000  0.000  0.000  0.000
 30  0.000  0.000  0.000  0.000
 31  0.000  0.000  0.000  0.000
 32  0.000  0.000  0.000  0.000
 33  0.000  0.000  0.000  0.000
 34  0.000  0.000  0.000  0.000
 35  0.000  0.000  0.000  0.000
 36  0.000  0.000  0.000  0.000
 37  0.000  0.000  0.000  0.000
 38  0.000  0.000  0.000  0.000
tot  0.000  0.996  0.000  0.996
 
band  22 # energy  -71.15356009 # occ.  2.00000000
 
ion      s      p      d    tot
  1  0.000  0.000  0.000  0.000
  2  0.000  0.000  0.000  0.000
  3  0.000  0.000  0.000  0.000
  4  0.000  0.000  0.000  0.000
  5  0.000  0.000  0.000  0.000
  6  0.000  0.000  0.000  0.000
  7  0.000  0.000  0.000  0.000
  8  0.000  0.000  0.000  0.000
  9  0.000  0.000  0.000  0.000
 10  0.000  0.034  0.000  0.034
 11  0.000  0.249  0.000  0.249
 12  0.000  0.055  0.000  0.055
 13  0.000  0.169  0.000  0.169
 14  0.000  0.000  0.000  0.000
 15  0.000  0.052  0.000  0.052
 16  0.000  0.176  0.000  0.176
 17  0.000  0.240  0.000  0.240
 18  0.000  0.000  0.000  0.000
 19  0.000  0.002  0.000  0.002
 20  0.000  0.004  0.000  0.004
 21  0.000  0.000  0.000  0.000
 22  0.000  0.000  0.000  0.000
 23  0.000  0.003  0.000  0.003
 24  0.000  0.002  0.000  0.002
 25  0.000  0.002  0.000  0.002
 26  0.000  0.004  0.000  0.004
 27  0.000  0.002  0.000  0.002
 28  0.000  0.000  0.000  0.000
 29  0.000  0.000  0.000  0.000
 30  0.000  0.000  0.000  0.000
 31  0.000  0.000  0.000  0.000
 32  0.000  0.000  0.000  0.000
 33  0.000  0.000  0.000  0.000
 34  0.000  0.000  0.000  0.000
 35  0.000  0.000  0.000  0.000
 36  0.000  0.000  0.000  0.000
 37  0.000  0.000  0.000  0.000
 38  0.000  0.000  0.000  0.000
tot  0.000  0.996  0.000  0.996
 
band  23 # energy  -71.15312374 # occ.  2.00000000
 
ion      s      p      d    tot
  1  0.000  0.000  0.000  0.000
  2  0.000  0.000  0.000  0.000
  3  0.000  0.000  0.000  0.000
  4  0.000  0.000  0.000  0.000
  5  0.000  0.000  0.000  0.000
  6  0.000  0.000  0.000  0.000
  7  0.000  0.001  0.000  0.001
  8  0.000  0.000  0.000  0.000
  9  0.000  0.000  0.000  0.000
 10  0.000  0.005  0.000  0.005
 11  0.000  0.103  0.000  0.103