unknown system                          
           1
     7.529542    0.000000    0.000000
     3.764771    6.520775    0.000000
     0.000000    0.000000   26.207423
   Cu   C 
  36   2
Direct configuration=     1
   0.00000000  0.00000000  0.00000000
   0.00000000  0.33333333  0.00000000
   0.00000000  0.66666667  0.00000000
   0.33333333  0.00000000  0.00000000
   0.33333333  0.33333333  0.00000000
   0.33333333  0.66666667  0.00000000
   0.66666667  0.00000000  0.00000000
   0.66666667  0.33333333  0.00000000
   0.66666667  0.66666667  0.00000000
   0.11111111  0.11111111  0.07819471
   0.11111111  0.44444444  0.07819471
   0.11111111  0.77777778  0.07819471
   0.44444444  0.11111111  0.07819471
   0.44444444  0.44444444  0.07819471
   0.44444444  0.77777778  0.07819471
   0.77777778  0.11111111  0.07819471
   0.77777778  0.44444444  0.07819471
   0.77777778  0.77777778  0.07819471
   0.22156672  0.22156672  0.15698183
   0.22219376  0.55556979  0.15663707
   0.22156672  0.89019990  0.15698183
   0.55556979  0.22219376  0.15663707
   0.55556979  0.55556979  0.15663707
   0.55498583  0.88917375  0.15640686
   0.89019990  0.22156672  0.15698183
   0.88917375  0.55498583  0.15640686
   0.88917375  0.88917375  0.15640686
   0.99499124  0.99499124  0.23819225
   0.99499124  0.34335085  0.23819225
   0.99922840  0.66705247  0.23489935
   0.34335085  0.99499124  0.23819225
   0.33432735  0.33432735  0.23600336
   0.33432735  0.66467863  0.23600336
   0.66705247  0.99922840  0.23489935
   0.66467863  0.33432735  0.23600336
   0.66705247  0.66705247  0.23489935
   0.11111111  0.11111111  0.27869515
   0.55535282  0.22262770  0.32737091
Direct configuration=     2
   0.00000000  0.00000000  0.00000000
   0.00000000  0.33333333  0.00000000
   0.00000000  0.66666667  0.00000000
   0.33333333  0.00000000  0.00000000
   0.33333333  0.33333333  0.00000000
   0.33333333  0.66666667  0.00000000
   0.66666667  0.00000000  0.00000000
   0.66666667  0.33333333  0.00000000
   0.66666667  0.66666667  0.00000000
   0.11111111  0.11111111  0.07819471
   0.11111111  0.44444444  0.07819471
   0.11111111  0.77777778  0.07819471
   0.44444444  0.11111111  0.07819471
   0.44444444  0.44444444  0.07819471
   0.44444444  0.77777778  0.07819471
   0.77777778  0.11111111  0.07819471
   0.77777778  0.44444444  0.07819471
   0.77777778  0.77777778  0.07819471
   0.22183225  0.22178686  0.15703072
   0.22232856  0.55527108  0.15664337
   0.22167906  0.88997522  0.15704641
   0.55543823  0.22245688  0.15643142
   0.55573370  0.55527108  0.15664337
   0.55511064  0.88929727  0.15640942
   0.88971422  0.22178686  0.15703072
   0.88910690  0.55511954  0.15647385
   0.88892542  0.88929727  0.15640942
   0.99548493  0.99491027  0.23837951
   0.99518826  0.34295681  0.23819922
   0.99917813  0.66694523  0.23491988
   0.34293813  0.99491027  0.23837951
   0.33654659  0.33338380  0.23752966
   0.33435382  0.66462570  0.23617310
   0.66625472  0.00082390  0.23641095
   0.66340294  0.33338380  0.23752966
   0.66720996  0.66694523  0.23491988
   0.11080046  0.11173241  0.27865715
   0.55530412  0.22272510  0.32251216
Direct configuration=     3
   0.00000000  0.00000000  0.00000000
   0.00000000  0.33333333  0.00000000
   0.00000000  0.66666667  0.00000000
   0.33333333  0.00000000  0.00000000
   0.33333333  0.33333333  0.00000000
   0.33333333  0.66666667  0.00000000
   0.66666667  0.00000000  0.00000000
   0.66666667  0.33333333  0.00000000
   0.66666667  0.66666667  0.00000000
   0.11111111  0.11111111  0.07819471
   0.11111111  0.44444444  0.07819471
   0.11111111  0.77777778  0.07819471
   0.44444444  0.11111111  0.07819471
   0.44444444  0.44444444  0.07819471
   0.44444444  0.77777778  0.07819471
   0.77777778  0.11111111  0.07819471
   0.77777778  0.44444444  0.07819471
   0.77777778  0.77777778  0.07819471
   0.22262884  0.22244730  0.15717738
   0.22273293  0.55437495  0.15666227
   0.22201607  0.88930119  0.15724014
   0.55504355  0.22324623  0.15581446
   0.55622545  0.55437495  0.15666227
   0.55548508  0.88966784  0.15641710
   0.88825719  0.22244730  0.15717738
   0.88890633  0.55552068  0.15667483
   0.88818042  0.88966784  0.15641710
   0.99696600  0.99466736  0.23894126
   0.99577932  0.34177470  0.23822012
   0.99902733  0.66662354  0.23498147
   0.34169997  0.99466736  0.23894126
   0.34320433  0.33055316  0.24210855
   0.33443321  0.66446691  0.23668229
   0.66386147  0.00561039  0.24094576
   0.65957585  0.33055316  0.24210855
   0.66768246  0.66662354  0.23498147
   0.10986851  0.11359632  0.27854315
   0.55515802  0.22301729  0.30793590
Direct configuration=     4
   0.00000000  0.00000000  0.00000000
   0.00000000  0.33333333  0.00000000
   0.00000000  0.66666667  0.00000000
   0.33333333  0.00000000  0.00000000
   0.33333333  0.33333333  0.00000000
   0.33333333  0.66666667  0.00000000
   0.66666667  0.00000000  0.00000000
   0.66666667  0.33333333  0.00000000
   0.66666667  0.66666667  0.00000000
   0.11111111  0.11111111  0.07819471
   0.11111111  0.44444444  0.07819471
   0.11111111  0.77777778  0.07819471
   0.44444444  0.11111111  0.07819471
   0.44444444  0.44444444  0.07819471
   0.44444444  0.77777778  0.07819471
   0.77777778  0.11111111  0.07819471
   0.77777778  0.44444444  0.07819471
   0.77777778  0.77777778  0.07819471
   0.22422202  0.22376818  0.15747069
   0.22354168  0.55258271  0.15670007
   0.22269010  0.88795313  0.15762760
   0.55425420  0.22482493  0.15458055
   0.55720894  0.55258271  0.15670007
   0.55623394  0.89040897  0.15643246
   0.88534314  0.22376818  0.15747069
   0.88850519  0.55632295  0.15707680
   0.88669042  0.89040897  0.15643246
   0.99992815  0.99418153  0.24006477
   0.99696142  0.33941048  0.23826193
   0.99872573  0.66598015  0.23510463
   0.33922366  0.99418153  0.24006477
   0.35651980  0.32489187  0.25126632
   0.33459200  0.66414934  0.23770069
   0.65907498  0.01518338  0.25001538
   0.65192166  0.32489187  0.25126632
   0.66862745  0.66598015  0.23510463
   0.10800460  0.11732413  0.27831514
   0.55486583  0.22360167  0.27878338
Direct configuration=     5
   0.00000000  0.00000000  0.00000000
   0.00000000  0.33333333  0.00000000
   0.00000000  0.66666667  0.00000000
   0.33333333  0.00000000  0.00000000
   0.33333333  0.33333333  0.00000000
   0.33333333  0.66666667  0.00000000
   0.66666667  0.00000000  0.00000000
   0.66666667  0.33333333  0.00000000
   0.66666667  0.66666667  0.00000000
   0.11111111  0.11111111  0.07819471
   0.11111111  0.44444444  0.07819471
   0.11111111  0.77777778  0.07819471
   0.44444444  0.11111111  0.07819471
   0.44444444  0.44444444  0.07819471
   0.44444444  0.77777778  0.07819471
   0.77777778  0.11111111  0.07819471
   0.77777778  0.44444444  0.07819471
   0.77777778  0.77777778  0.07819471
   0.22285180  0.22263215  0.15721842
   0.22284611  0.55412414  0.15666756
   0.22211040  0.88911253  0.15729436
   0.55493308  0.22346717  0.15564178
   0.55636308  0.55412414  0.15666756
   0.55558988  0.88977156  0.15641925
   0.88784938  0.22263215  0.15721842
   0.88885019  0.55563295  0.15673109
   0.88797190  0.88977156  0.15641925
   0.99738055  0.99459937  0.23909849
   0.99594475  0.34144384  0.23822597
   0.99898512  0.66653350  0.23499870
   0.34135342  0.99459937  0.23909849
   0.34506779  0.32976088  0.24339015
   0.33445543  0.66442247  0.23682482
   0.66319162  0.00695010  0.24221503
   0.65850467  0.32976088  0.24339015
   0.66781471  0.66653350  0.23499870
   0.10960766  0.11411801  0.27851124
   0.55511713  0.22309907  0.30385610
Direct configuration=     6
   0.00000000  0.00000000  0.00000000
   0.00000000  0.33333333  0.00000000
   0.00000000  0.66666667  0.00000000
   0.33333333  0.00000000  0.00000000
   0.33333333  0.33333333  0.00000000
   0.33333333  0.66666667  0.00000000
   0.66666667  0.00000000  0.00000000
   0.66666667  0.33333333  0.00000000
   0.66666667  0.66666667  0.00000000
   0.11111111  0.11111111  0.07819471
   0.11111111  0.44444444  0.07819471
   0.11111111  0.77777778  0.07819471
   0.44444444  0.11111111  0.07819471
   0.44444444  0.44444444  0.07819471
   0.44444444  0.77777778  0.07819471
   0.77777778  0.11111111  0.07819471
   0.77777778  0.44444444  0.07819471
   0.77777778  0.77777778  0.07819471
   0.22353691  0.22320017  0.15734456
   0.22319390  0.55335342  0.15668381
   0.22240025  0.88853283  0.15746098
   0.55459364  0.22414605  0.15511116
   0.55678601  0.55335342  0.15668381
   0.55591191  0.89009027  0.15642585
   0.88659626  0.22320017  0.15734456
   0.88867769  0.55597795  0.15690394
   0.88733116  0.89009027  0.15642585
   0.99865435  0.99439045  0.23958163
   0.99645309  0.34042716  0.23824395
   0.99885543  0.66625683  0.23505167
   0.34028854  0.99439045  0.23958163
   0.35079379  0.32732638  0.24732823
   0.33452372  0.66428590  0.23726275
   0.66113330  0.01106674  0.24611520
   0.65521317  0.32732638  0.24732823
   0.66822108  0.66625683  0.23505167
   0.10880613  0.11572107  0.27841319
   0.55499148  0.22335037  0.29131974
Direct configuration=     7
   0.00000000  0.00000000  0.00000000
   0.00000000  0.33333333  0.00000000
   0.00000000  0.66666667  0.00000000
   0.33333333  0.00000000  0.00000000
   0.33333333  0.33333333  0.00000000
   0.33333333  0.66666667  0.00000000
   0.66666667  0.00000000  0.00000000
   0.66666667  0.33333333  0.00000000
   0.66666667  0.66666667  0.00000000
   0.11111111  0.11111111  0.07819471
   0.11111111  0.44444444  0.07819471
   0.11111111  0.77777778  0.07819471
   0.44444444  0.11111111  0.07819471
   0.44444444  0.44444444  0.07819471
   0.44444444  0.77777778  0.07819471
   0.77777778  0.11111111  0.07819471
   0.77777778  0.44444444  0.07819471
   0.77777778  0.77777778  0.07819471
   0.22318533  0.22290868  0.15727983
   0.22301543  0.55374893  0.15667547
   0.22225151  0.88883032  0.15737548
   0.55476783  0.22379767  0.15538346
   0.55656898  0.55374893  0.15667547
   0.55574665  0.88992672  0.15642246
   0.88723932  0.22290868  0.15727983
   0.88876621  0.55580091  0.15681524
   0.88765996  0.88992672  0.15642246
   0.99800067  0.99449766  0.23933370
   0.99619222  0.34094889  0.23823473
   0.99892198  0.66639881  0.23502449
   0.34083500  0.99449766  0.23933370
   0.34785538  0.32857569  0.24530733
   0.33448867  0.66435598  0.23703802
   0.66218956  0.00895421  0.24411375
   0.65690226  0.32857569  0.24530733
   0.66801254  0.66639881  0.23502449
   0.10921745  0.11489843  0.27846350
   0.55505596  0.22322141  0.29775301
Direct configuration=     8
   0.00000000  0.00000000  0.00000000
   0.00000000  0.33333333  0.00000000
   0.00000000  0.66666667  0.00000000
   0.33333333  0.00000000  0.00000000
   0.33333333  0.33333333  0.00000000
   0.33333333  0.66666667  0.00000000
   0.66666667  0.00000000  0.00000000
   0.66666667  0.33333333  0.00000000
   0.66666667  0.66666667  0.00000000
   0.11111111  0.11111111  0.07819471
   0.11111111  0.44444444  0.07819471
   0.11111111  0.77777778  0.07819471
   0.44444444  0.11111111  0.07819471
   0.44444444  0.44444444  0.07819471
   0.44444444  0.77777778  0.07819471
   0.77777778  0.11111111  0.07819471
   0.77777778  0.44444444  0.07819471
   0.77777778  0.77777778  0.07819471
   0.22335296  0.22304766  0.15731069
   0.22310052  0.55356035  0.15667945
   0.22232243  0.88868847  0.15741625
   0.55468478  0.22396378  0.15525363
   0.55667246  0.55356035  0.15667945
   0.55582545  0.89000470  0.15642408
   0.88693271  0.22304766  0.15731069
   0.88872401  0.55588532  0.15685753
   0.88750319  0.89000470  0.15642408
   0.99831234  0.99444654  0.23945191
   0.99631660  0.34070013  0.23823912
   0.99889025  0.66633111  0.23503745
   0.34057445  0.99444654  0.23945191
   0.34925641  0.32798002  0.24627089
   0.33450538  0.66432257  0.23714517
   0.66168594  0.00996146  0.24506804
   0.65609691  0.32798002  0.24627089
   0.66811197  0.66633111  0.23503745
   0.10902134  0.11529066  0.27843951
   0.55502522  0.22328290  0.29468564
Direct configuration=     9
   0.00000000  0.00000000  0.00000000
   0.00000000  0.33333333  0.00000000
   0.00000000  0.66666667  0.00000000
   0.33333333  0.00000000  0.00000000
   0.33333333  0.33333333  0.00000000
   0.33333333  0.66666667  0.00000000
   0.66666667  0.00000000  0.00000000
   0.66666667  0.33333333  0.00000000
   0.66666667  0.66666667  0.00000000
   0.11111111  0.11111111  0.07819471
   0.11111111  0.44444444  0.07819471
   0.11111111  0.77777778  0.07819471
   0.44444444  0.11111111  0.07819471
   0.44444444  0.44444444  0.07819471
   0.44444444  0.77777778  0.07819471
   0.77777778  0.11111111  0.07819471
   0.77777778  0.44444444  0.07819471
   0.77777778  0.77777778  0.07819471
   0.22340393  0.22321965  0.15761037
   0.22319831  0.55337008  0.15699753
   0.22225451  0.88882431  0.15756875
   0.55477920  0.22377493  0.15580626
   0.55676494  0.55337008  0.15699753
   0.55596154  0.89042542  0.15676327
   0.88670976  0.22321965  0.15761037
   0.88876838  0.55579657  0.15696233
   0.88694637  0.89042542  0.15676327
   0.99823041  0.99315492  0.23921559
   0.99526418  0.34280498  0.23786018
   0.99906262  0.66618741  0.23500946
   0.34194801  0.99315492  0.23921559
   0.34155094  0.33119401  0.24726372
   0.33449192  0.66434950  0.23713307
   0.66431171  0.00470991  0.24643715
   0.66058838  0.33119401  0.24726372
   0.66808330  0.66618741  0.23500946
   0.10855304  0.11622726  0.27925781
   0.55604624  0.22124084  0.28914305
Direct configuration=    10
   0.00000000  0.00000000  0.00000000
   0.00000000  0.33333333  0.00000000
   0.00000000  0.66666667  0.00000000
   0.33333333  0.00000000  0.00000000
   0.33333333  0.33333333  0.00000000
   0.33333333  0.66666667  0.00000000
   0.66666667  0.00000000  0.00000000
   0.66666667  0.33333333  0.00000000
   0.66666667  0.66666667  0.00000000
   0.11111111  0.11111111  0.07819471
   0.11111111  0.44444444  0.07819471
   0.11111111  0.77777778  0.07819471
   0.44444444  0.11111111  0.07819471
   0.44444444  0.44444444  0.07819471
   0.44444444  0.77777778  0.07819471
   0.77777778  0.11111111  0.07819471
   0.77777778  0.44444444  0.07819471
   0.77777778  0.77777778  0.07819471
   0.22340294  0.22321634  0.15760461
   0.22319643  0.55337374  0.15699141
   0.22225582  0.88882170  0.15756581
   0.55477738  0.22377857  0.15579562
   0.55676316  0.55337374  0.15699141
   0.55595892  0.89041733  0.15675674
   0.88671405  0.22321634  0.15760461
   0.88876753  0.55579827  0.15696031
   0.88695708  0.89041733  0.15675674
   0.99823199  0.99317978  0.23922013
   0.99528443  0.34276447  0.23786747
   0.99905931  0.66619017  0.23501000
   0.34192157  0.99317978  0.23922013
   0.34169922  0.33113216  0.24724462
   0.33449218  0.66434898  0.23713330
   0.66426118  0.00481097  0.24641080
   0.66050195  0.33113216  0.24724462
   0.66808385  0.66619017  0.23501000
   0.10856205  0.11620923  0.27924207
   0.55602660  0.22128014  0.28924971
Direct configuration=    11
   0.00000000  0.00000000  0.00000000
   0.00000000  0.33333333  0.00000000
   0.00000000  0.66666667  0.00000000
   0.33333333  0.00000000  0.00000000
   0.33333333  0.33333333  0.00000000
   0.33333333  0.66666667  0.00000000
   0.66666667  0.00000000  0.00000000
   0.66666667  0.33333333  0.00000000
   0.66666667  0.66666667  0.00000000
   0.11111111  0.11111111  0.07819471
   0.11111111  0.44444444  0.07819471
   0.11111111  0.77777778  0.07819471
   0.44444444  0.11111111  0.07819471
   0.44444444  0.44444444  0.07819471
   0.44444444  0.77777778  0.07819471
   0.77777778  0.11111111  0.07819471
   0.77777778  0.44444444  0.07819471
   0.77777778  0.77777778  0.07819471
   0.22324812  0.22314784  0.15789616
   0.22323409  0.55344480  0.15733735
   0.22206131  0.88921072  0.15765957
   0.55499384  0.22334565  0.15663696
   0.55665444  0.55344480  0.15733735
   0.55602255  0.89077275  0.15711955
   0.88693738  0.22314784  0.15789616
   0.88881958  0.55569418  0.15693608
   0.88653803  0.89077275  0.15711955
   0.99837768  0.99244048  0.23893543
   0.99461850  0.34409632  0.23765816
   0.99921362  0.66617543  0.23498744
   0.34251517  0.99244048  0.23893543
   0.32921674  0.33684468  0.24629757
   0.33451889  0.66429555  0.23695680
   0.66913107 -0.00492881  0.24585803
   0.66727191  0.33684468  0.24629757
   0.66794428  0.66617543  0.23498744
   0.10818073  0.11697188  0.27972718
   0.55731395  0.21870542  0.28917270
Direct configuration=    12
   0.00000000  0.00000000  0.00000000
   0.00000000  0.33333333  0.00000000
   0.00000000  0.66666667  0.00000000
   0.33333333  0.00000000  0.00000000
   0.33333333  0.33333333  0.00000000
   0.33333333  0.66666667  0.00000000
   0.66666667  0.00000000  0.00000000
   0.66666667  0.33333333  0.00000000
   0.66666667  0.66666667  0.00000000
   0.11111111  0.11111111  0.07819471
   0.11111111  0.44444444  0.07819471
   0.11111111  0.77777778  0.07819471
   0.44444444  0.11111111  0.07819471
   0.44444444  0.44444444  0.07819471
   0.44444444  0.77777778  0.07819471
   0.77777778  0.11111111  0.07819471
   0.77777778  0.44444444  0.07819471
   0.77777778  0.77777778  0.07819471
   0.22321622  0.22313373  0.15795622
   0.22324185  0.55345944  0.15740862
   0.22202124  0.88929085  0.15767888
   0.55503843  0.22325647  0.15681027
   0.55663205  0.55345944  0.15740862
   0.55603566  0.89084596  0.15719429
   0.88698338  0.22313373  0.15795622
   0.88883030  0.55567273  0.15693109
   0.88645171  0.89084596  0.15719429
   0.99840770  0.99228818  0.23887678
   0.99448133  0.34437068  0.23761504
   0.99924541  0.66617239  0.23498280
   0.34263745  0.99228818  0.23887678
   0.32664538  0.33802145  0.24610248
   0.33452439  0.66428455  0.23692044
   0.67013426 -0.00693518  0.24574416
   0.66866651  0.33802145  0.24610248
   0.66791553  0.66617239  0.23498280
   0.10810218  0.11712898  0.27982711
   0.55757915  0.21817504  0.28915683
Direct configuration=    13
   0.00000000  0.00000000  0.00000000
   0.00000000  0.33333333  0.00000000
   0.00000000  0.66666667  0.00000000
   0.33333333  0.00000000  0.00000000
   0.33333333  0.33333333  0.00000000
   0.33333333  0.66666667  0.00000000
   0.66666667  0.00000000  0.00000000
   0.66666667  0.33333333  0.00000000
   0.66666667  0.66666667  0.00000000
   0.11111111  0.11111111  0.07819471
   0.11111111  0.44444444  0.07819471
   0.11111111  0.77777778  0.07819471
   0.44444444  0.11111111  0.07819471
   0.44444444  0.44444444  0.07819471
   0.44444444  0.77777778  0.07819471
   0.77777778  0.11111111  0.07819471
   0.77777778  0.44444444  0.07819471
   0.77777778  0.77777778  0.07819471
   0.22312863  0.22298244  0.15806727
   0.22329088  0.55356204  0.15755623
   0.22188312  0.88956710  0.15766354
   0.55513494  0.22306345  0.15742443
   0.55648041  0.55356204  0.15755623
   0.55603763  0.89101274  0.15735062
   0.88722227  0.22298244  0.15806727
   0.88880666  0.55572002  0.15678939
   0.88628297  0.89101274  0.15735062
   0.99892715  0.99263251  0.23888951
   0.99468127  0.34397080  0.23769661
   0.99914609  0.66635662  0.23498638
   0.34177368  0.99263251  0.23888951
   0.32614007  0.33811776  0.24578678
   0.33467947  0.66397438  0.23681648
   0.67077789 -0.00822245  0.24530718
   0.66907550  0.33811776  0.24578678
   0.66783063  0.66635662  0.23498638
   0.10786569  0.11760195  0.27962601
   0.55753738  0.21825857  0.28830445
Direct configuration=    14
   0.00000000  0.00000000  0.00000000
   0.00000000  0.33333333  0.00000000
   0.00000000  0.66666667  0.00000000
   0.33333333  0.00000000  0.00000000
   0.33333333  0.33333333  0.00000000
   0.33333333  0.66666667  0.00000000
   0.66666667  0.00000000  0.00000000
   0.66666667  0.33333333  0.00000000
   0.66666667  0.66666667  0.00000000
   0.11111111  0.11111111  0.07819471
   0.11111111  0.44444444  0.07819471
   0.11111111  0.77777778  0.07819471
   0.44444444  0.11111111  0.07819471
   0.44444444  0.44444444  0.07819471
   0.44444444  0.77777778  0.07819471
   0.77777778  0.11111111  0.07819471
   0.77777778  0.44444444  0.07819471
   0.77777778  0.77777778  0.07819471
   0.22291582  0.22261489  0.15833705
   0.22340998  0.55381132  0.15791484
   0.22154755  0.89023823  0.15762627
   0.55536939  0.22259455  0.15891649
   0.55611203  0.55381132  0.15791484
   0.55604241  0.89141789  0.15773041
   0.88780262  0.22261489  0.15833705
   0.88874921  0.55583491  0.15644513
   0.88587304  0.89141789  0.15773041
   0.00018910  0.99346903  0.23892043
   0.99516702  0.34299930  0.23789478
   0.99890480  0.66680417  0.23499510
   0.33967520  0.99346903  0.23892043
   0.32491248  0.33835175  0.24501982
   0.33505623  0.66322087  0.23656392
   0.67234154 -0.01134974  0.24424556
   0.67006910  0.33835175  0.24501982
   0.66762436  0.66680417  0.23499510
   0.10729117  0.11875100  0.27913744
   0.55743591  0.21846152  0.28623366
Direct configuration=    15
   0.00000000  0.00000000  0.00000000
   0.00000000  0.33333333  0.00000000
   0.00000000  0.66666667  0.00000000
   0.33333333  0.00000000  0.00000000
   0.33333333  0.33333333  0.00000000
   0.33333333  0.66666667  0.00000000
   0.66666667  0.00000000  0.00000000
   0.66666667  0.33333333  0.00000000
   0.66666667  0.66666667  0.00000000
   0.11111111  0.11111111  0.07819471
   0.11111111  0.44444444  0.07819471
   0.11111111  0.77777778  0.07819471
   0.44444444  0.11111111  0.07819471
   0.44444444  0.44444444  0.07819471
   0.44444444  0.77777778  0.07819471
   0.77777778  0.11111111  0.07819471
   0.77777778  0.44444444  0.07819471
   0.77777778  0.77777778  0.07819471
   0.22285773  0.22251455  0.15841070
   0.22344250  0.55387937  0.15801274
   0.22145595  0.89042143  0.15761610
   0.55543339  0.22246654  0.15932380
   0.55601147  0.55387937  0.15801274
   0.55604371  0.89152849  0.15783409
   0.88796105  0.22251455  0.15841070
   0.88873353  0.55586627  0.15635116
   0.88576113  0.89152849  0.15783409
   0.00053360  0.99369738  0.23892887
   0.99529962  0.34273410  0.23794888
   0.99883893  0.66692635  0.23499747
   0.33910235  0.99369738  0.23892887
   0.32457737  0.33841562  0.24481045
   0.33515908  0.66301517  0.23649497
   0.67276839 -0.01220344  0.24395576
   0.67034034  0.33841562  0.24481045
   0.66756806  0.66692635  0.23499747
   0.10713433  0.11906467  0.27900407
   0.55740821  0.21851692  0.28566837
Direct configuration=    16
   0.00000000  0.00000000  0.00000000
   0.00000000  0.33333333  0.00000000
   0.00000000  0.66666667  0.00000000
   0.33333333  0.00000000  0.00000000
   0.33333333  0.33333333  0.00000000
   0.33333333  0.66666667  0.00000000
   0.66666667  0.00000000  0.00000000
   0.66666667  0.33333333  0.00000000
   0.66666667  0.66666667  0.00000000
   0.11111111  0.11111111  0.07819471
   0.11111111  0.44444444  0.07819471
   0.11111111  0.77777778  0.07819471
   0.44444444  0.11111111  0.07819471
   0.44444444  0.44444444  0.07819471
   0.44444444  0.77777778  0.07819471
   0.77777778  0.11111111  0.07819471
   0.77777778  0.44444444  0.07819471
   0.77777778  0.77777778  0.07819471
   0.22275344  0.22260232  0.15841849
   0.22337884  0.55391626  0.15803832
   0.22140261  0.89052811  0.15753280
   0.55541576  0.22250181  0.15986140
   0.55603823  0.55391626  0.15803832
   0.55589887  0.89160951  0.15790301
   0.88797757  0.22260232  0.15841849
   0.88872989  0.55587355  0.15623233
   0.88582495  0.89160951  0.15790301
   0.00051140  0.99321062  0.23883751
   0.99431604  0.34470126  0.23778854
   0.99891841  0.66679154  0.23502972
   0.33961131  0.99321062  0.23883751
   0.32466593  0.33820668  0.24424788
   0.33528015  0.66277304  0.23642133
   0.67280749 -0.01228165  0.24337517
   0.67046072  0.33820668  0.24424788
   0.66762339  0.66679154  0.23502972
   0.10698943  0.11935448  0.27939536
   0.55769470  0.21794393  0.28451438
Direct configuration=    17
   0.00000000  0.00000000  0.00000000
   0.00000000  0.33333333  0.00000000
   0.00000000  0.66666667  0.00000000
   0.33333333  0.00000000  0.00000000
   0.33333333  0.33333333  0.00000000
   0.33333333  0.66666667  0.00000000
   0.66666667  0.00000000  0.00000000
   0.66666667  0.33333333  0.00000000
   0.66666667  0.66666667  0.00000000
   0.11111111  0.11111111  0.07819471
   0.11111111  0.44444444  0.07819471
   0.11111111  0.77777778  0.07819471
   0.44444444  0.11111111  0.07819471
   0.44444444  0.44444444  0.07819471
   0.44444444  0.77777778  0.07819471
   0.77777778  0.11111111  0.07819471
   0.77777778  0.44444444  0.07819471
   0.77777778  0.77777778  0.07819471
   0.22267437  0.22266886  0.15842439
   0.22333058  0.55394423  0.15805771
   0.22136218  0.89060898  0.15746966
   0.55540240  0.22252854  0.16026895
   0.55605852  0.55394423  0.15805771
   0.55578907  0.89167094  0.15795525
   0.88799010  0.22266886  0.15842439
   0.88872713  0.55587907  0.15614224
   0.88587333  0.89167094  0.15795525
   0.00049457  0.99284161  0.23876824
   0.99357038  0.34619258  0.23766699
   0.99897866  0.66668933  0.23505416
   0.33999715  0.99284161  0.23876824
   0.32473307  0.33804828  0.24382139
   0.33537193  0.66258948  0.23636550
   0.67283713 -0.01234093  0.24293502
   0.67055198  0.33804828  0.24382139
   0.66766534  0.66668933  0.23505416
   0.10687957  0.11957419  0.27969200
   0.55791189  0.21750955  0.28363953
Direct configuration=    18
   0.00000000  0.00000000  0.00000000
   0.00000000  0.33333333  0.00000000
   0.00000000  0.66666667  0.00000000
   0.33333333  0.00000000  0.00000000
   0.33333333  0.33333333  0.00000000
   0.33333333  0.66666667  0.00000000
   0.66666667  0.00000000  0.00000000
   0.66666667  0.33333333  0.00000000
   0.66666667  0.66666667  0.00000000
   0.11111111  0.11111111  0.07819471
   0.11111111  0.44444444  0.07819471
   0.11111111  0.77777778  0.07819471
   0.44444444  0.11111111  0.07819471
   0.44444444  0.44444444  0.07819471
   0.44444444  0.77777778  0.07819471
   0.77777778  0.11111111  0.07819471
   0.77777778  0.44444444  0.07819471
   0.77777778  0.77777778  0.07819471
   0.22261849  0.22289195  0.15828819
   0.22316411  0.55395536  0.15787384
   0.22144725  0.89043884  0.15739653
   0.55527304  0.22278725  0.16010512
   0.55621386  0.55395536  0.15787384
   0.55568070  0.89151269  0.15779560
   0.88782289  0.22289195  0.15828819
   0.88865090  0.55603153  0.15614033
   0.88613995  0.89151269  0.15779560
   0.00063912  0.99266840  0.23883026
   0.99348547  0.34636240  0.23772225
   0.99918777  0.66650265  0.23508908
   0.34002582  0.99266840  0.23883026
   0.32444438  0.33807578  0.24336216
   0.33528312  0.66276709  0.23639253
   0.67280874 -0.01228414  0.24248428
   0.67081317  0.33807578  0.24336216
   0.66764291  0.66650265  0.23508908
   0.10656568  0.12020197  0.27973674
   0.55823840  0.21685652  0.28341917
Direct configuration=    19
   0.00000000  0.00000000  0.00000000
   0.00000000  0.33333333  0.00000000
   0.00000000  0.66666667  0.00000000
   0.33333333  0.00000000  0.00000000
   0.33333333  0.33333333  0.00000000
   0.33333333  0.66666667  0.00000000
   0.66666667  0.00000000  0.00000000
   0.66666667  0.33333333  0.00000000
   0.66666667  0.66666667  0.00000000
   0.11111111  0.11111111  0.07819471
   0.11111111  0.44444444  0.07819471
   0.11111111  0.77777778  0.07819471
   0.44444444  0.11111111  0.07819471
   0.44444444  0.44444444  0.07819471
   0.44444444  0.77777778  0.07819471
   0.77777778  0.11111111  0.07819471
   0.77777778  0.44444444  0.07819471
   0.77777778  0.77777778  0.07819471
   0.22251767  0.22329448  0.15804242
   0.22286374  0.55397544  0.15754206
   0.22160076  0.89013182  0.15726458
   0.55503963  0.22325408  0.15980951
   0.55649416  0.55397544  0.15754206
   0.55548515  0.89122714  0.15750752
   0.88752118  0.22329448  0.15804242
   0.88851336  0.55630661  0.15613688
   0.88662105  0.89122714  0.15750752
   0.00089994  0.99235584  0.23894216
   0.99333226  0.34666882  0.23782197
   0.99956508  0.66616580  0.23515210
   0.34007755  0.99235584  0.23894216
   0.32392346  0.33812540  0.24253353
   0.33512288  0.66308758  0.23644130
   0.67275750 -0.01218167  0.24167095
   0.67128447  0.33812540  0.24253353
   0.66760245  0.66616580  0.23515210
   0.10599929  0.12133475  0.27981746
   0.55882757  0.21567819  0.28302154
Direct configuration=    20
   0.00000000  0.00000000  0.00000000
   0.00000000  0.33333333  0.00000000
   0.00000000  0.66666667  0.00000000
   0.33333333  0.00000000  0.00000000
   0.33333333  0.33333333  0.00000000
   0.33333333  0.66666667  0.00000000
   0.66666667  0.00000000  0.00000000
   0.66666667  0.33333333  0.00000000
   0.66666667  0.66666667  0.00000000
   0.11111111  0.11111111  0.07819471
   0.11111111  0.44444444  0.07819471
   0.11111111  0.77777778  0.07819471
   0.44444444  0.11111111  0.07819471
   0.44444444  0.44444444  0.07819471
   0.44444444  0.77777778  0.07819471
   0.77777778  0.11111111  0.07819471
   0.77777778  0.44444444  0.07819471
   0.77777778  0.77777778  0.07819471
   0.22231601  0.22409955  0.15755089
   0.22226298  0.55401560  0.15687851
   0.22190777  0.88951779  0.15700067
   0.55457280  0.22418773  0.15921828
   0.55705476  0.55401560  0.15687851
   0.55509405  0.89065604  0.15693135
   0.88691777  0.22409955  0.15755089
   0.88823828  0.55685678  0.15612998
   0.88758325  0.89065604  0.15693135
   0.00142158  0.99173074  0.23916595
   0.99302584  0.34728166  0.23802141
   0.00031970  0.66549210  0.23527812
   0.34018102  0.99173074  0.23916595
   0.32288163  0.33822463  0.24087626
   0.33480239  0.66372856  0.23653884
   0.67265503 -0.01197673  0.24004429
   0.67222707  0.33822463  0.24087626
   0.66752153  0.66549210  0.23527812
   0.10486651  0.12360032  0.27997891
   0.56000590  0.21332153  0.28222629
Direct configuration=    21
   0.00000000  0.00000000  0.00000000
   0.00000000  0.33333333  0.00000000
   0.00000000  0.66666667  0.00000000
   0.33333333  0.00000000  0.00000000
   0.33333333  0.33333333  0.00000000
   0.33333333  0.66666667  0.00000000
   0.66666667  0.00000000  0.00000000
   0.66666667  0.33333333  0.00000000
   0.66666667  0.66666667  0.00000000