   43   43  150    1
  0.3851204E+02  0.8694366E-09  0.1304155E-08  0.2642121E-08  0.5000000E-15
  1.000000000000000E-004
  CAR 
 unknown system                          
    718      7    432
 
  0.0000000E+00  0.0000000E+00  0.0000000E+00  0.8333333E-01
    1      -71.675028
    2      -71.646281
    3      -71.444254
    4      -71.417351
    5      -71.406410
    6      -71.380744
    7      -71.379449
    8      -71.357714
    9      -71.259689
   10      -71.187981
   11      -71.180911
   12      -71.113602
   13      -71.109757
   14      -71.108456
   15      -71.103846
   16      -71.102067
   17      -71.099443
   18      -71.097223
   19      -71.093440
   20      -71.092706
   21      -71.089565
   22      -71.087078
   23      -71.084964
   24      -71.083907
   25      -71.079846
   26      -71.079033
   27      -71.076721
   28      -71.073925
   29      -71.072358
   30      -71.068264
   31      -71.067205
   32      -71.065672
   33      -71.064185
   34      -71.062126
   35      -71.060408
   36      -71.055438
   37      -71.053206
   38      -71.050157
   39      -71.048884
   40      -71.047081
   41      -71.044852
   42      -71.042320
   43      -71.038664
   44      -71.037851
   45      -71.035577
   46      -71.034486
   47      -71.030847
   48      -71.030281
   49      -71.026233
   50      -71.024809
   51      -71.023714
   52      -71.020672
   53      -71.020312
   54      -71.019145
   55      -71.017180
   56      -71.015931
   57      -71.015192
   58      -71.013924
   59      -71.012116
   60      -71.010541
   61      -71.009726
   62      -71.004203
   63      -71.001115
   64      -70.999358
   65      -70.988753
   66      -70.983312
   67      -70.971009
   68      -70.942809
   69      -70.925107
   70      -70.899640
   71      -70.898444
   72      -70.892848
   73      -70.884317
   74      -70.878109
   75      -70.877077
   76      -70.875535
   77      -70.867629
   78      -70.864731
   79      -70.862463
   80      -70.861036
   81      -70.858936
   82      -70.855676
   83      -70.855151
   84      -70.845551
   85      -70.842541
   86      -70.840582
   87      -70.826299
   88      -70.824484
   89      -70.823735
   90      -70.823406
   91      -70.821320
   92      -70.809086
   93      -70.806577
   94      -70.806497
   95      -70.805285
   96      -70.801115
   97      -70.611169
   98      -70.604475
   99      -70.563082
  100      -70.554482
  101      -70.549947
  102      -70.544700
  103      -70.535385
  104      -70.530200
  105      -70.523748
  106      -70.512771
  107      -70.510663
  108      -70.509244
  109      -70.504754
  110      -70.499802
  111      -70.491032
  112      -70.482931
  113      -70.480363
  114      -70.476903
  115      -70.473476
  116      -70.470722
  117      -70.470159
  118      -70.467718
  119      -70.463811
  120      -70.458457
  121      -70.455893
  122      -70.455740
  123      -70.447466
  124      -70.446069
  125      -70.441489
  126      -70.422647
  127      -12.952043
  128       -9.989131
  129       -8.417294
  130       -8.061412
  131       -7.920228
  132       -7.561034
  133       -7.400331
  134       -7.230365
  135       -6.954793
  136       -6.898685
  137       -6.793445
  138       -6.682367
  139       -6.508348
  140       -6.455563
  141       -6.309702
  142       -6.211955
  143       -6.026535
  144       -5.957508
  145       -5.920882
  146       -5.854454
  147       -5.815844
  148       -5.787945
  149       -5.700653
  150       -5.623358
  151       -5.584804
  152       -5.565821
  153       -5.463495
  154       -5.451525
  155       -5.443270
  156       -5.430192
  157       -5.380269
  158       -5.367607
  159       -5.308015
  160       -5.304165
  161       -5.278053
  162       -5.269466
  163       -5.251161
  164       -5.230713
  165       -5.216398
  166       -5.194055
  167       -5.157189
  168       -5.147492
  169       -5.123503
  170       -5.099520
  171       -5.056950
  172       -5.050702
  173       -5.004666
  174       -4.970615
  175       -4.958972
  176       -4.925463
  177       -4.916948
  178       -4.893372
  179       -4.874120
  180       -4.833992
  181       -4.771988
  182       -4.756579
  183       -4.695961
  184       -4.686573
  185       -4.663172
  186       -4.657285
  187       -4.639090
  188       -4.629271
  189       -4.609727
  190       -4.601789
  191       -4.589102
  192       -4.564680
  193       -4.556662
  194       -4.519459
  195       -4.513153
  196       -4.490462
  197       -4.463121
  198       -4.442936
  199       -4.424437
  200       -4.380481
  201       -4.365534
  202       -4.347043
  203       -4.328772
  204       -4.303710
  205       -4.283993
  206       -4.269249
  207       -4.254317
  208       -4.241582
  209       -4.224896
  210       -4.210480
  211       -4.197387
  212       -4.170842
  213       -4.158634
  214       -4.144361
  215       -4.132895
  216       -4.122923
  217       -4.110503
  218       -4.099406
  219       -4.071576
  220       -4.055247
  221       -4.031498
  222       -4.030029
  223       -4.027219
  224       -4.002084
  225       -3.990878
  226       -3.969427
  227       -3.956190
  228       -3.956045
  229       -3.929824
  230       -3.921890
  231       -3.906145
  232       -3.898768
  233       -3.893611
  234       -3.881313
  235       -3.869249
  236       -3.848462
  237       -3.840609
  238       -3.833038
  239       -3.826527
  240       -3.823551
  241       -3.801848
  242       -3.759641
  243       -3.755370
  244       -3.741127
  245       -3.736237
  246       -3.729743
  247       -3.703713
  248       -3.686272
  249       -3.666509
  250       -3.650186
  251       -3.627761
  252       -3.620514
  253       -3.604325
  254       -3.585390
  255       -3.553110
  256       -3.535704
  257       -3.514735
  258       -3.507003
  259       -3.487405
  260       -3.477719
  261       -3.474596
  262       -3.463162
  263       -3.454416
  264       -3.446165
  265       -3.433988
  266       -3.409466
  267       -3.405328
  268       -3.384519
  269       -3.370704
  270       -3.364564
  271       -3.345422
  272       -3.328735
  273       -3.311269
  274       -3.304669
  275       -3.285276
  276       -3.274059
  277       -3.265541
  278       -3.258201
  279       -3.243631
  280       -3.228863
  281       -3.210743
  282       -3.198762
  283       -3.181299
  284       -3.175707
  285       -3.129574
  286       -3.122922
  287       -3.108905
  288       -3.098251
  289       -3.083367
  290       -3.071490
  291       -3.066797
  292       -3.056654
  293       -3.022202
  294       -3.013757
  295       -3.004186
  296       -2.990814
  297       -2.983090
  298       -2.976946
  299       -2.961205
  300       -2.937332
  301       -2.929740
  302       -2.909670
  303       -2.904844
  304       -2.882295
  305       -2.880209
  306       -2.869638
  307       -2.863003
  308       -2.847042
  309       -2.836082
  310       -2.818290
  311       -2.806593
  312       -2.798116
  313       -2.787132
  314       -2.781367
  315       -2.773129
  316       -2.768243
  317       -2.757833
  318       -2.733844
  319       -2.722980
  320       -2.714409
  321       -2.711322
  322       -2.694425
  323       -2.690559
  324       -2.668345
  325       -2.665158
  326       -2.658270
  327       -2.648376
  328       -2.642717
  329       -2.635669
  330       -2.625803
  331       -2.616000
  332       -2.611916
  333       -2.610096
  334       -2.598676
  335       -2.593541
  336       -2.576609
  337       -2.570028
  338       -2.556988
  339       -2.527833
  340       -2.512280
  341       -2.502867
  342       -2.486362
  343       -2.482986
  344       -2.468672
  345       -2.459069
  346       -2.450527
  347       -2.429344
  348       -2.417575
  349       -2.323571
  350       -2.175899
  351       -2.064831
  352       -1.962796
  353       -1.849182
  354       -1.840830
  355       -1.550054
  356       -1.463364
  357       -1.435754
  358       -1.089004
  359       -0.983831
  360       -0.902454
  361       -0.878143
  362       -0.778965
  363       -0.638635
  364       -0.400956
  365       -0.002577
  366        0.099951
  367        0.288946
  368        0.399501
  369        0.556124
  370        0.733966
  371        0.844762
  372        0.911263
  373        1.087762
  374        1.149444
  375        1.296070
  376        1.425168
  377        1.650341
  378        1.810708
  379        1.902159
  380        2.090459
  381        2.380150
  382        2.525934
  383        2.582289
  384        2.783259
  385        2.953978
  386        3.172908
  387        3.254447
  388        3.408817
  389        3.498877
  390        3.677793
  391        3.710853
  392        3.916818
  393        3.977203
  394        4.004939
  395        4.167092
  396        4.210036
  397        4.588110
  398        4.624242
  399        4.721858
  400        4.752097
  401        4.805098
  402        4.968239
  403        5.036825
  404        5.103437
  405        5.149679
  406        5.240655
  407        5.369241
  408        5.382086
  409        5.471526
  410        5.559246
  411        5.597695
  412        5.684477
  413        5.847661
  414        6.022566
  415        6.041982
  416        6.159238
  417        6.179234
  418        6.193547
  419        6.226783
  420        6.273277
  421        6.315442
  422        6.436394
  423        6.457023
  424        6.506673
  425        6.524851
  426        6.691743
  427        6.780156
  428        6.837780
  429        6.859878
  430        6.889445
  431        6.964572
  432        6.971647
 
  0.2500000E+00  0.0000000E+00  0.0000000E+00  0.1666667E+00
    1      -71.674997
    2      -71.646275
    3      -71.444236
    4      -71.417338
    5      -71.406367
    6      -71.380737
    7      -71.379409
    8      -71.357726
    9      -71.259672
   10      -71.187947
   11      -71.180857
   12      -71.113474
   13      -71.110133
   14      -71.106625
   15      -71.104090
   16      -71.102553
   17      -71.098195
   18      -71.095617
   19      -71.093619
   20      -71.092948
   21      -71.090664
   22      -71.088503
   23      -71.086773
   24      -71.082818
   25      -71.081012
   26      -71.077595
   27      -71.076592
   28      -71.073420
   29      -71.072972
   30      -71.071027
   31      -71.068006
   32      -71.064494
   33      -71.062990
   34      -71.061555
   35      -71.059104
   36      -71.057424
   37      -71.053156
   38      -71.051208
   39      -71.048736
   40      -71.046337
   41      -71.044576
   42      -71.040997
   43      -71.039404
   44      -71.037383
   45      -71.034313
   46      -71.033094
   47      -71.030396
   48      -71.029204
   49      -71.026414
   50      -71.025337
   51      -71.022697
   52      -71.022023
   53      -71.020417
   54      -71.019016
   55      -71.017882
   56      -71.016167
   57      -71.015161
   58      -71.014024
   59      -71.012688
   60      -71.011888
   61      -71.009539
   62      -71.004358
   63      -71.000735
   64      -70.999186
   65      -70.988846
   66      -70.983224
   67      -70.971104
   68      -70.942789
   69      -70.925150
   70      -70.899750
   71      -70.898370
   72      -70.892793
   73      -70.884261
   74      -70.878220
   75      -70.876976
   76      -70.874674
   77      -70.867678
   78      -70.866119
   79      -70.864378
   80      -70.861386
   81      -70.858710
   82      -70.855539
   83      -70.851133
   84      -70.845600
   85      -70.842469
   86      -70.840533
   87      -70.830563
   88      -70.825623
   89      -70.823775
   90      -70.823427
   91      -70.816294
   92      -70.809076
   93      -70.807339
   94      -70.806559
   95      -70.805405
   96      -70.801077
   97      -70.611149
   98      -70.604394
   99      -70.563089
  100      -70.554479
  101      -70.549285
  102      -70.544773
  103      -70.537753
  104      -70.530168
  105      -70.519696
  106      -70.512750
  107      -70.510656
  108      -70.509210
  109      -70.504796
  110      -70.504306
  111      -70.488153
  112      -70.482941
  113      -70.480334
  114      -70.477162
  115      -70.473917
  116      -70.470536
  117      -70.470123
  118      -70.467826
  119      -70.463858
  120      -70.458418
  121      -70.455909
  122      -70.455743
  123      -70.447452
  124      -70.446022
  125      -70.441451
  126      -70.422615
  127      -12.943706
  128       -9.611478
  129       -8.934300
  130       -8.597553
  131       -8.079111
  132       -7.635452
  133       -7.245733
  134       -7.023153
  135       -6.989619
  136       -6.761067
  137       -6.640463
  138       -6.617418
  139       -6.435121
  140       -6.274173
  141       -6.214208
  142       -6.099871
  143       -6.047270
  144       -5.936828
  145       -5.877083
  146       -5.809005
  147       -5.761276
  148       -5.739716
  149       -5.714745
  150       -5.694612
  151       -5.656720
  152       -5.620824
  153       -5.539190
  154       -5.488903
  155       -5.431643
  156       -5.417997
  157       -5.403107
  158       -5.368860
  159       -5.351300
  160       -5.325289
  161       -5.308187
  162       -5.288033
  163       -5.262946
  164       -5.210970
  165       -5.171712
  166       -5.153067
  167       -5.103247
  168       -5.092750
  169       -5.076577
  170       -5.062196
  171       -5.050284
  172       -5.022498
  173       -4.994699
  174       -4.983243
  175       -4.967655
  176       -4.955940
  177       -4.907210
  178       -4.877582
  179       -4.849266
  180       -4.794552
  181       -4.769909
  182       -4.746128
  183       -4.725367
  184       -4.716657
  185       -4.659583
  186       -4.643013
  187       -4.614805
  188       -4.588090
  189       -4.572607
  190       -4.562179
  191       -4.552061
  192       -4.534476
  193       -4.522368
  194       -4.505957
  195       -4.498299
  196       -4.478893
  197       -4.461211
  198       -4.435472
  199       -4.424276
  200       -4.382713
  201       -4.368611
  202       -4.351243
  203       -4.342461
  204       -4.321108
  205       -4.297198
  206       -4.292260
  207       -4.273134
  208       -4.254317
  209       -4.233375
  210       -4.212171
  211       -4.200881
  212       -4.194142
  213       -4.182615
  214       -4.171479
  215       -4.143921
  216       -4.137739
  217       -4.116959
  218       -4.109773
  219       -4.090716
  220       -4.079868
  221       -4.061544
  222       -4.056081
  223       -4.042366
  224       -4.014094
  225       -3.990907
  226       -3.972626
  227       -3.969511
  228       -3.957264
  229       -3.940198
  230       -3.932929
  231       -3.918468
  232       -3.896297
  233       -3.891380
  234       -3.876158
  235       -3.870779
  236       -3.854792
  237       -3.842158
  238       -3.821846
  239       -3.803816
  240       -3.792801
  241       -3.780535
  242       -3.763575
  243       -3.747065
  244       -3.734766
  245       -3.714198
  246       -3.693040
  247       -3.672964
  248       -3.662221
  249       -3.655901
  250       -3.647681
  251       -3.637187
  252       -3.626033
  253       -3.605119
  254       -3.589220
  255       -3.579842
  256       -3.550609
  257       -3.541519
  258       -3.529970
  259       -3.507226
  260       -3.496264
  261       -3.480119
  262       -3.462398
  263       -3.459156
  264       -3.435315
  265       -3.420315
  266       -3.398169
  267       -3.385849
  268       -3.365989
  269       -3.354277
  270       -3.340231
  271       -3.331666
  272       -3.314569
  273       -3.302488
  274       -3.298399
  275       -3.288411
  276       -3.278802
  277       -3.262204
  278       -3.236694
  279       -3.223715
  280       -3.205043
  281       -3.196161
  282       -3.190657
  283       -3.171517
  284       -3.168062
  285       -3.140305
  286       -3.131153
  287       -3.117204
  288       -3.108418
  289       -3.091827
  290       -3.083799
  291       -3.065876
  292       -3.052068
  293       -3.034550
  294       -3.023028
  295       -3.013032
  296       -2.995564
  297       -2.986398
  298       -2.980177
  299       -2.959974
  300       -2.949358
  301       -2.932006
  302       -2.912902
  303       -2.899802
  304       -2.882751
  305       -2.869349
  306       -2.860411
  307       -2.848809
  308       -2.837784
  309       -2.829349
  310       -2.822958
  311       -2.818646
  312       -2.808629
  313       -2.798559
  314       -2.781245
  315       -2.767219
  316       -2.763804
  317       -2.756684
  318       -2.747665
  319       -2.735878
  320       -2.730998
  321       -2.728020
  322       -2.712620
  323       -2.709112
  324       -2.687413
  325       -2.679901
  326       -2.669736
  327       -2.663229
  328       -2.647726
  329       -2.634815
  330       -2.628837
  331       -2.615656
  332       -2.607125
  333       -2.592335
  334       -2.583033
  335       -2.574630
  336       -2.569073
  337       -2.560678
  338       -2.541262
  339       -2.530755
  340       -2.519246
  341       -2.508588
  342       -2.504446
  343       -2.487925
  344       -2.480043
  345       -2.450447
  346       -2.440435
  347       -2.408067
  348       -2.375992
  349       -2.363045
  350       -2.248528
  351       -2.081848
  352       -1.937190
  353       -1.879810
  354       -1.752440
  355       -1.689946
  356       -1.458005
  357       -1.383841
  358       -1.236258
  359       -1.115264
  360       -0.897685
  361       -0.804166
  362       -0.644083
  363       -0.492016
  364       -0.312748
  365       -0.245615
  366       -0.147013
  367        0.011112
  368        0.322991
  369        0.651184
  370        0.692134
  371        0.749167
  372        0.911792
  373        1.040380
  374        1.232849
  375        1.412029
  376        1.544110
  377        1.698705
  378        1.759610
  379        2.005391
  380        2.091922
  381        2.303999
  382        2.480630
  383        2.588108
  384        2.779506
  385        2.917744
  386        3.099511
  387        3.318991
  388        3.585116
  389        3.686771
  390        3.754422
  391        3.796407
  392        3.947339
  393        4.027980
  394        4.119574
  395        4.133630
  396        4.255380
  397        4.307473
  398        4.378357
  399        4.386436
  400        4.462448
  401        4.600862
  402        4.713716
  403        4.800426
  404        4.891302
  405        5.049925
  406        5.228214
  407        5.321310
  408        5.363280
  409        5.449348
  410        5.493488
  411        5.539557
  412        5.638475
  413        5.711734
  414        5.819976
  415        5.901306
  416        5.980775
  417        6.054506
  418        6.089151
  419        6.226930
  420        6.377269
  421        6.480513
  422        6.539858
  423        6.673666
  424        6.735820
  425        6.752041
  426        6.797480
  427        6.883378
  428        6.901158
  429        6.976224
  430        7.043580
  431        7.126556
  432        7.150907
 
  0.5000000E+00  0.0000000E+00  0.0000000E+00  0.8333333E-01
    1      -71.675067
    2      -71.646286
    3      -71.444260
    4      -71.417408
    5      -71.406377
    6      -71.380779
    7      -71.379423
    8      -71.357789
    9      -71.259690
   10      -71.187982
   11      -71.180904
   12      -71.113539
   13      -71.110481
   14      -71.106540
   15      -71.103905
   16      -71.100585
   17      -71.096722
   18      -71.096329
   19      -71.094009
   20      -71.092869
   21      -71.091948
   22      -71.089692
   23      -71.088002
   24      -71.083188
   25      -71.081844
   26      -71.078607
   27      -71.075017
   28      -71.074074
   29      -71.072445
   30      -71.070322
   31      -71.068798
   32      -71.064411
   33      -71.061531
   34      -71.060404
   35      -71.059287
   36      -71.057143
   37      -71.055225
   38      -71.052414
   39      -71.049629
   40      -71.045932
   41      -71.043836
   42      -71.040863
   43      -71.039725
   44      -71.037905
   45      -71.033140
   46      -71.032342
   47      -71.030495
   48      -71.028152
   49      -71.026596
   50      -71.024621
   51      -71.022584
   52      -71.021831
   53      -71.020652
   54      -71.019180
   55      -71.018317
   56      -71.017943
   57      -71.015702
   58      -71.014579
   59      -71.012683
   60      -71.011849
   61      -71.008011
   62      -71.005221
   63      -71.001318
   64      -70.997256
   65      -70.989139
   66      -70.983527
   67      -70.971218
   68      -70.942836
   69      -70.925298
   70      -70.899913
   71      -70.898251
   72      -70.892796
   73      -70.884338
   74      -70.878222
   75      -70.877065
   76      -70.873098
   77      -70.869164
   78      -70.867760
   79      -70.864620
   80      -70.861401
   81      -70.858932
   82      -70.855793
   83      -70.847140
   84      -70.845593
   85      -70.842474
   86      -70.840499
   87      -70.834806
   88      -70.825620
   89      -70.823806
   90      -70.823435
   91      -70.812466
   92      -70.809372
   93      -70.808855
   94      -70.806622
   95      -70.805445
   96      -70.801082
   97      -70.611110
   98      -70.604475
   99      -70.563148
  100      -70.554522
  101      -70.548514
  102      -70.544892
  103      -70.539736
  104      -70.530132
  105      -70.514198
  106      -70.512784
  107      -70.510690
  108      -70.510399
  109      -70.509218
  110      -70.504870
  111      -70.485883
  112      -70.482695
  113      -70.480352
  114      -70.477812
  115      -70.474328
  116      -70.470514
  117      -70.470128
  118      -70.467927
  119      -70.463901
  120      -70.458416
  121      -70.455984
  122      -70.455771
  123      -70.447444
  124      -70.446062
  125      -70.441443
  126      -70.422625
  127      -12.937946
  128       -9.209070
  129       -9.074003
  130       -8.543872
  131       -8.418756
  132       -7.880636
  133       -7.570386
  134       -7.393176
  135       -6.994065
  136       -6.851040
  137       -6.479809
  138       -6.442657
  139       -6.393879
  140       -6.173465
  141       -6.066240
  142       -6.014222
  143       -5.972073
  144       -5.907490
  145       -5.881938
  146       -5.804815
  147       -5.726031
  148       -5.715149
  149       -5.690708
  150       -5.646491
  151       -5.610381
  152       -5.585629
  153       -5.537985
  154       -5.499629
  155       -5.438331
  156       -5.415714
  157       -5.385707
  158       -5.367924
  159       -5.340377
  160       -5.291943
  161       -5.281800
  162       -5.270371
  163       -5.249231
  164       -5.212564
  165       -5.208372
  166       -5.184256
  167       -5.178946
  168       -5.147352
  169       -5.133868
  170       -5.120398
  171       -5.116299
  172       -5.095174
  173       -5.028849
  174       -4.995049
  175       -4.949184
  176       -4.922527
  177       -4.864842
  178       -4.791721
  179       -4.764221
  180       -4.709011
  181       -4.683013
  182       -4.654159
  183       -4.645519
  184       -4.630463
  185       -4.608242
  186       -4.602338
  187       -4.592371
  188       -4.568214
  189       -4.550427
  190       -4.541018
  191       -4.532935
  192       -4.508907
  193       -4.498493
  194       -4.469762
  195       -4.455874
  196       -4.447654
  197       -4.428254
  198       -4.424301
  199       -4.410893
  200       -4.398536
  201       -4.384538
  202       -4.376019
  203       -4.370293
  204       -4.356932
  205       -4.343151
  206       -4.326528
  207       -4.290008
  208       -4.280079
  209       -4.265930
  210       -4.254713
  211       -4.238505
  212       -4.218680
  213       -4.183532
  214       -4.178537
  215       -4.151185
  216       -4.142138
  217       -4.128400
  218       -4.120853
  219       -4.106637
  220       -4.094457
  221       -4.091041
  222       -4.063733
  223       -4.039867
  224       -4.026233
  225       -3.992891
  226       -3.973783
  227       -3.967415
  228       -3.947898
  229       -3.927297
  230       -3.917588
  231       -3.910509
  232       -3.877154
  233       -3.864142
  234       -3.852179
  235       -3.846346
  236       -3.824054
  237       -3.822109
  238       -3.813657
  239       -3.800175
  240       -3.782810
  241       -3.771586
  242       -3.758354
  243       -3.742283
  244       -3.739523
  245       -3.714780
  246       -3.703910
  247       -3.700327
  248       -3.689785
  249       -3.681059
  250       -3.656031
  251       -3.628954
  252       -3.618570
  253       -3.598587
  254       -3.576682
  255       -3.574930
  256       -3.570368
  257       -3.556056
  258       -3.548350
  259       -3.527225
  260       -3.503304
  261       -3.495525
  262       -3.475866
  263       -3.450884
  264       -3.442841
  265       -3.431274
  266       -3.416078
  267       -3.404211
  268       -3.376731
  269       -3.375111
  270       -3.349426
  271       -3.333322
  272       -3.327886
  273       -3.319441
  274       -3.303538
  275       -3.289706
  276       -3.282455
  277       -3.260284
  278       -3.236001
  279       -3.218853
  280       -3.216134
  281       -3.188714
  282       -3.172319
  283       -3.167761
  284       -3.158887
  285       -3.145902
  286       -3.127449
  287       -3.120945
  288       -3.111581
  289       -3.089687
  290       -3.078453
  291       -3.064845
  292       -3.059265
  293       -3.057408
  294       -3.037881
  295       -3.033643
  296       -3.002085
  297       -2.988782
  298       -2.979420
  299       -2.973571
  300       -2.964429
  301       -2.958963
  302       -2.949320
  303       -2.937021
  304       -2.917339
  305       -2.884850
  306       -2.869021
  307       -2.853450
  308       -2.845452
  309       -2.839591
  310       -2.833157
  311       -2.819824
  312       -2.802932
  313       -2.799659
  314       -2.794799
  315       -2.775288
  316       -2.756205
  317       -2.744534
  318       -2.739856
  319       -2.736074
  320       -2.729810
  321       -2.726321
  322       -2.724792
  323       -2.713669
  324       -2.703474
  325       -2.690247
  326       -2.655747
  327       -2.650970
  328       -2.648009
  329       -2.637769
  330       -2.634448
  331       -2.629262
  332       -2.618135
  333       -2.593648
  334       -2.584877
  335       -2.580038
  336       -2.576214
  337       -2.556311
  338       -2.542162
  339       -2.524534
  340       -2.506275
  341       -2.495859
  342       -2.474571
  343       -2.464601
  344       -2.400599
  345       -2.375738
  346       -2.371668
  347       -2.339355
  348       -2.321396
  349       -2.209348
  350       -2.080219
  351       -1.940419
  352       -1.789436
  353       -1.725761
  354       -1.615789
  355       -1.458505
  356       -1.356801
  357       -1.305767
  358       -1.251732
  359       -1.037606
  360       -0.938553
  361       -0.767556
  362       -0.555635
  363       -0.294124
  364       -0.277981
  365       -0.153328
  366       -0.035969
  367        0.016122
  368        0.284947
  369        0.310189
  370        0.443459
  371        0.465093
  372        0.560773
  373        0.709846
  374        0.770051
  375        0.846957
  376        1.166974
  377        1.299307
  378        1.537981
  379        1.767610
  380        1.964121
  381        2.034835
  382        2.088196
  383        2.208147
  384        2.768554
  385        2.901409
  386        3.103609
  387        3.404067
  388        3.526885
  389        3.874772
  390        3.890050
  391        3.949478
  392        3.991857
  393        4.083548
  394        4.133724
  395        4.180486
  396        4.321210
  397        4.527621
  398        4.558247
  399        4.735085
  400        4.770101
  401        4.785687
  402        4.884301
  403        4.895912
  404        4.930203
  405        4.966996
  406        4.995723
  407        5.109416
  408        5.146069
  409        5.420928
  410        5.494818
  411        5.568193
  412        5.589245
  413        5.676097
  414        5.726816
  415        5.793101
  416        5.830114
  417        5.947915
  418        6.050062
  419        6.164027
  420        6.346606
  421        6.477142
  422        6.512960
  423        6.570800
  424        6.648990
  425        6.685227
  426        6.833379
  427        6.883074
  428        7.045649
  429        7.094210
  430        7.180426
  431        7.193373
  432        7.206970
 
  0.0000000E+00  0.3333333E+00  0.0000000E+00  0.1666667E+00
    1      -71.675015
    2      -71.646247
    3      -71.444202
    4      -71.417344
    5      -71.406382
    6      -71.380790
    7      -71.379371
    8      -71.357727
    9      -71.259694
   10      -71.187937
   11      -71.180862
   12      -71.113390
   13      -71.110664
   14      -71.107080
   15      -71.103965
   16      -71.102799
   17      -71.098004
   18      -71.096592
   19      -71.093350
   20      -71.092789
   21      -71.090959
   22      -71.088545
   23      -71.085989
   24      -71.083971
   25      -71.080004
   26      -71.076879
   27      -71.075791
   28      -71.073825
   29      -71.071638
   30      -71.069575
   31      -71.068521
   32      -71.064657
   33      -71.063521
   34      -71.061011
   35      -71.059049
   36      -71.057289
   37      -71.051963
   38      -71.050416
   39      -71.048637
   40      -71.046930
   41      -71.045638
   42      -71.041737
   43      -71.040120
   44      -71.037688
   45      -71.035285
   46      -71.032541
   47      -71.030962