unknown system                          
           1
     8.694366    0.000000    0.000000
    10.867958    7.208987    0.000000
     0.000000    0.000000   26.421215
   Cu   C 
  42   1
Direct configuration=     1
   0.31810000  0.21206667  0.00000000
   0.31810000  0.54540000  0.00000000
   0.31810000  0.87873333  0.00000000
   0.81810000  0.21206667  0.00000000
   0.81810000  0.54540000  0.00000000
   0.81810000  0.87873333  0.00000000
   0.45445000  0.30296667  0.04050542
   0.45445000  0.63630000  0.04050542
   0.45445000  0.96963333  0.04050542
   0.95445000  0.30296667  0.04050542
   0.95445000  0.63630000  0.04050542
   0.95445000  0.96963333  0.04050542
   0.09080000  0.06053333  0.08101085
   0.09080000  0.39386667  0.08101085
   0.09080000  0.72720000  0.08101085
   0.59080000  0.06053333  0.08101085
   0.59080000  0.39386667  0.08101085
   0.59080000  0.72720000  0.08101085
   0.22652687  0.15101791  0.12348170
   0.22652687  0.48435125  0.12348170
   0.22652687  0.81768458  0.12348170
   0.72652687  0.15101791  0.12348170
   0.72652687  0.48435125  0.12348170
   0.72652687  0.81768458  0.12348170
   0.36155532  0.24103688  0.16385473
   0.36155532  0.57437022  0.16385473
   0.36155532  0.90770355  0.16385473
   0.86155532  0.24103688  0.16385473
   0.86155532  0.57437022  0.16385473
   0.86155532  0.90770355  0.16385473
   0.99938826  0.99959217  0.20751287
   0.99938826  0.33292551  0.20751287
   0.99938826  0.66625884  0.20751287
   0.49938826  0.99959217  0.20751287
   0.49938826  0.33292551  0.20751287
   0.49938826  0.66625884  0.20751287
   0.13528546  0.09019031  0.24382920
   0.13528546  0.42352364  0.24382920
   0.13528546  0.75685697  0.24382920
   0.63528546  0.09019031  0.24382920
   0.63528546  0.42352364  0.24382920
   0.63528546  0.75685697  0.24382920
   0.24938822  0.49959217  0.33417613
Direct configuration=     2
   0.31810000  0.21206667  0.00000000
   0.31810000  0.54540000  0.00000000
   0.31810000  0.87873333  0.00000000
   0.81810000  0.21206667  0.00000000
   0.81810000  0.54540000  0.00000000
   0.81810000  0.87873333  0.00000000
   0.45445000  0.30296667  0.04050542
   0.45445000  0.63630000  0.04050542
   0.45445000  0.96963333  0.04050542
   0.95445000  0.30296667  0.04050542
   0.95445000  0.63630000  0.04050542
   0.95445000  0.96963333  0.04050542
   0.09080000  0.06053333  0.08101085
   0.09080000  0.39386667  0.08101085
   0.09080000  0.72720000  0.08101085
   0.59080000  0.06053333  0.08101085
   0.59080000  0.39386667  0.08101085
   0.59080000  0.72720000  0.08101085
   0.22659093  0.15096885  0.12344088
   0.22644007  0.48434028  0.12357806
   0.22649440  0.81762137  0.12348698
   0.72632326  0.15114234  0.12352912
   0.72638505  0.48434750  0.12350830
   0.72668183  0.81755392  0.12352354
   0.36121039  0.24128735  0.16377235
   0.36152764  0.57449070  0.16371153
   0.36165160  0.90776729  0.16383956
   0.86125369  0.24130391  0.16377740
   0.86166347  0.57439948  0.16376909
   0.86130586  0.90799304  0.16383002
   0.99920614  0.99940681  0.20744782
   0.99888983  0.33307976  0.20746818
   0.99903592  0.66625215  0.20773500
   0.49891131  0.99970509  0.20744553
   0.49901998  0.33294324  0.20773420
   0.49918748  0.66622654  0.20743356
   0.13554272  0.09004153  0.24390906
   0.13669058  0.42420778  0.24522031
   0.13544251  0.75611364  0.24444632
   0.63537208  0.09032834  0.24412441
   0.63429633  0.42353943  0.24440738
   0.63577544  0.75672946  0.24413143
   0.24887111  0.49925549  0.33085222
Direct configuration=     3
   0.31810000  0.21206667  0.00000000
   0.31810000  0.54540000  0.00000000
   0.31810000  0.87873333  0.00000000
   0.81810000  0.21206667  0.00000000
   0.81810000  0.54540000  0.00000000
   0.81810000  0.87873333  0.00000000
   0.45445000  0.30296667  0.04050542
   0.45445000  0.63630000  0.04050542
   0.45445000  0.96963333  0.04050542
   0.95445000  0.30296667  0.04050542
   0.95445000  0.63630000  0.04050542
   0.95445000  0.96963333  0.04050542
   0.09080000  0.06053333  0.08101085
   0.09080000  0.39386667  0.08101085
   0.09080000  0.72720000  0.08101085
   0.59080000  0.06053333  0.08101085
   0.59080000  0.39386667  0.08101085
   0.59080000  0.72720000  0.08101085
   0.22678312  0.15082167  0.12331844
   0.22617966  0.48430736  0.12386714
   0.22639701  0.81743173  0.12350281
   0.72571242  0.15151562  0.12367139
   0.72595959  0.48433627  0.12358812
   0.72714673  0.81716196  0.12364905
   0.36017559  0.24203876  0.16352519
   0.36144461  0.57485217  0.16328192
   0.36194045  0.90795852  0.16379403
   0.86034878  0.24210498  0.16354538
   0.86198790  0.57448726  0.16351216
   0.86055748  0.90886152  0.16375586
   0.99865977  0.99885072  0.20725269
   0.99739452  0.33354250  0.20733410
   0.99797890  0.66623208  0.20840142
   0.49748045  0.00004385  0.20724353
   0.49791513  0.33299642  0.20839818
   0.49858515  0.66612966  0.20719566
   0.13631451  0.08959522  0.24414864
   0.14090593  0.42626021  0.24939365
   0.13591366  0.75388363  0.24629769
   0.63563194  0.09074245  0.24501007
   0.63132892  0.42358680  0.24614194
   0.63724539  0.75634691  0.24503815
   0.24731978  0.49824544  0.32088051
Direct configuration=     4
   0.31810000  0.21206667  0.00000000
   0.31810000  0.54540000  0.00000000
   0.31810000  0.87873333  0.00000000
   0.81810000  0.21206667  0.00000000
   0.81810000  0.54540000  0.00000000
   0.81810000  0.87873333  0.00000000
   0.45445000  0.30296667  0.04050542
   0.45445000  0.63630000  0.04050542
   0.45445000  0.96963333  0.04050542
   0.95445000  0.30296667  0.04050542
   0.95445000  0.63630000  0.04050542
   0.95445000  0.96963333  0.04050542
   0.09080000  0.06053333  0.08101085
   0.09080000  0.39386667  0.08101085
   0.09080000  0.72720000  0.08101085
   0.59080000  0.06053333  0.08101085
   0.59080000  0.39386667  0.08101085
   0.59080000  0.72720000  0.08101085
   0.22716750  0.15052732  0.12307356
   0.22565885  0.48424154  0.12444532
   0.22620222  0.81705246  0.12353448
   0.72449074  0.15226219  0.12395593
   0.72510866  0.48431381  0.12374776
   0.72807652  0.81637802  0.12390008
   0.35810599  0.24354158  0.16303087
   0.36127854  0.57557510  0.16242269
   0.36251814  0.90834098  0.16370297
   0.85853897  0.24370713  0.16308136
   0.86263677  0.57466283  0.16299829
   0.85906071  0.91059847  0.16360755
   0.99756703  0.99773854  0.20686242
   0.99440392  0.33446800  0.20706596
   0.99586486  0.66619194  0.20973425
   0.49461874  0.00072137  0.20683953
   0.49570542  0.33310279  0.20972615
   0.49738049  0.66593588  0.20671985
   0.13785809  0.08870258  0.24462780
   0.14933662  0.43036507  0.25774034
   0.13685597  0.74942361  0.25000043
   0.63615165  0.09157067  0.24678138
   0.62539411  0.42368155  0.24961106
   0.64018528  0.75558181  0.24685157
   0.24421711  0.49622535  0.30093708
Direct configuration=     5
   0.31810000  0.21206667  0.00000000
   0.31810000  0.54540000  0.00000000
   0.31810000  0.87873333  0.00000000
   0.81810000  0.21206667  0.00000000
   0.81810000  0.54540000  0.00000000
   0.81810000  0.87873333  0.00000000
   0.45445000  0.30296667  0.04050542
   0.45445000  0.63630000  0.04050542
   0.45445000  0.96963333  0.04050542
   0.95445000  0.30296667  0.04050542
   0.95445000  0.63630000  0.04050542
   0.95445000  0.96963333  0.04050542
   0.09080000  0.06053333  0.08101085
   0.09080000  0.39386667  0.08101085
   0.09080000  0.72720000  0.08101085
   0.59080000  0.06053333  0.08101085
   0.59080000  0.39386667  0.08101085
   0.59080000  0.72720000  0.08101085
   0.22793627  0.14993861  0.12258380
   0.22461722  0.48410990  0.12560166
   0.22581263  0.81629392  0.12359781
   0.72204738  0.15375531  0.12452500
   0.72340682  0.48426889  0.12406704
   0.72993609  0.81481016  0.12440214
   0.35396678  0.24654723  0.16204224
   0.36094640  0.57702096  0.16070423
   0.36367352  0.90910591  0.16352086
   0.85491934  0.24691142  0.16215330
   0.86393450  0.57501396  0.16197055
   0.85606716  0.91407237  0.16331094
   0.99538156  0.99551418  0.20608189
   0.98842270  0.33631899  0.20652967
   0.99163678  0.66611166  0.21239990
   0.48889532  0.00207640  0.20603152
   0.49128602  0.33331553  0.21238209
   0.49497116  0.66554832  0.20576822
   0.14094524  0.08691730  0.24558612
   0.16619802  0.43857478  0.27443372
   0.13874057  0.74050356  0.25740591
   0.63719107  0.09322711  0.25032399
   0.61352449  0.42387104  0.25654929
   0.64606506  0.75405160  0.25047843
   0.23801178  0.49218516  0.26105024
Direct configuration=     6
   0.31810000  0.21206667  0.00000000
   0.31810000  0.54540000  0.00000000
   0.31810000  0.87873333  0.00000000
   0.81810000  0.21206667  0.00000000
   0.81810000  0.54540000  0.00000000
   0.81810000  0.87873333  0.00000000
   0.45445000  0.30296667  0.04050542
   0.45445000  0.63630000  0.04050542
   0.45445000  0.96963333  0.04050542
   0.95445000  0.30296667  0.04050542
   0.95445000  0.63630000  0.04050542
   0.95445000  0.96963333  0.04050542
   0.09080000  0.06053333  0.08101085
   0.09080000  0.39386667  0.08101085
   0.09080000  0.72720000  0.08101085
   0.59080000  0.06053333  0.08101085
   0.59080000  0.39386667  0.08101085
   0.59080000  0.72720000  0.08101085
   0.22766944  0.15014294  0.12275379
   0.22497876  0.48415559  0.12520031
   0.22594785  0.81655720  0.12357583
   0.72289544  0.15323707  0.12432748
   0.72399751  0.48428448  0.12395622
   0.72929065  0.81535434  0.12422788
   0.35540345  0.24550400  0.16238538
   0.36106168  0.57651912  0.16130068
   0.36327250  0.90884041  0.16358407
   0.85617567  0.24579925  0.16247542
   0.86348407  0.57489209  0.16232727
   0.85710619  0.91286662  0.16341389
   0.99614011  0.99628623  0.20635280
   0.99049871  0.33567654  0.20671581
   0.99310430  0.66613952  0.21147469
   0.49088186  0.00160609  0.20631197
   0.49281994  0.33324169  0.21146025
   0.49580741  0.66568284  0.20609852
   0.13987373  0.08753695  0.24525350
   0.16034563  0.43572529  0.26863964
   0.13808645  0.74359960  0.25483555
   0.63683030  0.09265218  0.24909439
   0.61764429  0.42380527  0.25414111
   0.64402426  0.75458272  0.24921959
   0.24016557  0.49358747  0.27489449
Direct configuration=     7
   0.31810000  0.21206667  0.00000000
   0.31810000  0.54540000  0.00000000
   0.31810000  0.87873333  0.00000000
   0.81810000  0.21206667  0.00000000
   0.81810000  0.54540000  0.00000000
   0.81810000  0.87873333  0.00000000
   0.45445000  0.30296667  0.04050542
   0.45445000  0.63630000  0.04050542
   0.45445000  0.96963333  0.04050542
   0.95445000  0.30296667  0.04050542
   0.95445000  0.63630000  0.04050542
   0.95445000  0.96963333  0.04050542
   0.09080000  0.06053333  0.08101085
   0.09080000  0.39386667  0.08101085
   0.09080000  0.72720000  0.08101085
   0.59080000  0.06053333  0.08101085
   0.59080000  0.39386667  0.08101085
   0.59080000  0.72720000  0.08101085
   0.22727553  0.15044459  0.12300474
   0.22551248  0.48422304  0.12460781
   0.22614747  0.81694587  0.12354337
   0.72414739  0.15247200  0.12403590
   0.72486952  0.48430750  0.12379263
   0.72833783  0.81615770  0.12397063
   0.35752434  0.24396394  0.16289195
   0.36123187  0.57577828  0.16218120
   0.36268050  0.90844847  0.16367738
   0.85803033  0.24415740  0.16295094
   0.86281913  0.57471217  0.16285387
   0.85864005  0.91108663  0.16356587
   0.99725993  0.99742597  0.20675274
   0.99356342  0.33472811  0.20699060
   0.99527072  0.66618066  0.21010883
   0.49381448  0.00091178  0.20672598
   0.49508440  0.33313269  0.21009937
   0.49704193  0.66588142  0.20658612
   0.13829190  0.08845170  0.24476246
   0.15170602  0.43151872  0.26008613
   0.13712080  0.74817014  0.25104106
   0.63629771  0.09180344  0.24727919
   0.62372617  0.42370818  0.25058603
   0.64101152  0.75536678  0.24736123
   0.24334512  0.49565761  0.29533210
Direct configuration=     8
   0.31810000  0.21206667  0.00000000
   0.31810000  0.54540000  0.00000000
   0.31810000  0.87873333  0.00000000
   0.81810000  0.21206667  0.00000000
   0.81810000  0.54540000  0.00000000
   0.81810000  0.87873333  0.00000000
   0.45445000  0.30296667  0.04050542
   0.45445000  0.63630000  0.04050542
   0.45445000  0.96963333  0.04050542
   0.95445000  0.30296667  0.04050542
   0.95445000  0.63630000  0.04050542
   0.95445000  0.96963333  0.04050542
   0.09080000  0.06053333  0.08101085
   0.09080000  0.39386667  0.08101085
   0.09080000  0.72720000  0.08101085
   0.59080000  0.06053333  0.08101085
   0.59080000  0.39386667  0.08101085
   0.59080000  0.72720000  0.08101085
   0.22733957  0.15039555  0.12296394
   0.22542571  0.48421208  0.12470413
   0.22611502  0.81688268  0.12354865
   0.72394386  0.15259638  0.12408330
   0.72472776  0.48430376  0.12381922
   0.72849273  0.81602710  0.12401245
   0.35717955  0.24421431  0.16280960
   0.36120420  0.57589871  0.16203806
   0.36277674  0.90851219  0.16366221
   0.85772882  0.24442431  0.16287364
   0.86292723  0.57474142  0.16276826
   0.85839069  0.91137600  0.16354117
   0.99707788  0.99724068  0.20668772
   0.99306520  0.33488229  0.20694593
   0.99491853  0.66617397  0.21033088
   0.49333772  0.00102465  0.20665868
   0.49471627  0.33315041  0.21032061
   0.49684123  0.66584914  0.20650685
   0.13854906  0.08830299  0.24484229
   0.15311055  0.43220257  0.26147667
   0.13727778  0.74742712  0.25165793
   0.63638429  0.09194142  0.24757429
   0.62273744  0.42372396  0.25116398
   0.64150130  0.75523931  0.24766334
   0.24282823  0.49532107  0.29200958
Direct configuration=     9
   0.31810000  0.21206667  0.00000000
   0.31810000  0.54540000  0.00000000
   0.31810000  0.87873333  0.00000000
   0.81810000  0.21206667  0.00000000
   0.81810000  0.54540000  0.00000000
   0.81810000  0.87873333  0.00000000
   0.45445000  0.30296667  0.04050542
   0.45445000  0.63630000  0.04050542
   0.45445000  0.96963333  0.04050542
   0.95445000  0.30296667  0.04050542
   0.95445000  0.63630000  0.04050542
   0.95445000  0.96963333  0.04050542
   0.09080000  0.06053333  0.08101085
   0.09080000  0.39386667  0.08101085
   0.09080000  0.72720000  0.08101085
   0.59080000  0.06053333  0.08101085
   0.59080000  0.39386667  0.08101085
   0.59080000  0.72720000  0.08101085
   0.22733722  0.15044033  0.12293737
   0.22552345  0.48425968  0.12478276
   0.22597143  0.81712319  0.12352812
   0.72379580  0.15276625  0.12411170
   0.72490764  0.48432551  0.12379356
   0.72867815  0.81604953  0.12403823
   0.35673470  0.24441049  0.16307054
   0.36081424  0.57596504  0.16227970
   0.36269825  0.90842078  0.16376675
   0.85731220  0.24448971  0.16307596
   0.86292861  0.57465819  0.16301628
   0.85827872  0.91126251  0.16377465
   0.99735209  0.99688018  0.20671560
   0.99242984  0.33535592  0.20704924
   0.99478845  0.66645489  0.21049744
   0.49333038  0.00129764  0.20662903
   0.49487493  0.33320246  0.21046340
   0.49667515  0.66572003  0.20659258
   0.13819722  0.08834214  0.24482292
   0.15272680  0.43175655  0.26224118
   0.13692190  0.74698857  0.25200375
   0.63636429  0.09171918  0.24768434
   0.62216964  0.42349027  0.25147896
   0.64152383  0.75499372  0.24778537
   0.24405854  0.49619636  0.28843683
Direct configuration=    10
   0.31810000  0.21206667  0.00000000
   0.31810000  0.54540000  0.00000000
   0.31810000  0.87873333  0.00000000
   0.81810000  0.21206667  0.00000000
   0.81810000  0.54540000  0.00000000
   0.81810000  0.87873333  0.00000000
   0.45445000  0.30296667  0.04050542
   0.45445000  0.63630000  0.04050542
   0.45445000  0.96963333  0.04050542
   0.95445000  0.30296667  0.04050542
   0.95445000  0.63630000  0.04050542
   0.95445000  0.96963333  0.04050542
   0.09080000  0.06053333  0.08101085
   0.09080000  0.39386667  0.08101085
   0.09080000  0.72720000  0.08101085
   0.59080000  0.06053333  0.08101085
   0.59080000  0.39386667  0.08101085
   0.59080000  0.72720000  0.08101085
   0.22733016  0.15057465  0.12285765
   0.22581668  0.48440249  0.12501864
   0.22554066  0.81784472  0.12346652
   0.72335162  0.15327587  0.12419692
   0.72544728  0.48439078  0.12371655
   0.72923443  0.81611680  0.12411555
   0.35540014  0.24499904  0.16385338
   0.35964438  0.57616400  0.16300464
   0.36246280  0.90814656  0.16408034
   0.85606235  0.24468591  0.16368293
   0.86293274  0.57440849  0.16376033
   0.85794283  0.91092204  0.16447509
   0.99817473  0.99579868  0.20679922
   0.99052378  0.33677681  0.20735918
   0.99439822  0.66729765  0.21099715
   0.49330833  0.00211659  0.20654009
   0.49535090  0.33335860  0.21089176
   0.49617689  0.66533272  0.20684976
   0.13714171  0.08845959  0.24476483
   0.15157553  0.43041848  0.26453474
   0.13585426  0.74567292  0.25304123
   0.63630427  0.09105248  0.24801448
   0.62046623  0.42278921  0.25242391
   0.64159143  0.75425695  0.24815147
   0.24774949  0.49882221  0.27771856
Direct configuration=    11
   0.31810000  0.21206667  0.00000000
   0.31810000  0.54540000  0.00000000
   0.31810000  0.87873333  0.00000000
   0.81810000  0.21206667  0.00000000
   0.81810000  0.54540000  0.00000000
   0.81810000  0.87873333  0.00000000
   0.45445000  0.30296667  0.04050542
   0.45445000  0.63630000  0.04050542
   0.45445000  0.96963333  0.04050542
   0.95445000  0.30296667  0.04050542
   0.95445000  0.63630000  0.04050542
   0.95445000  0.96963333  0.04050542
   0.09080000  0.06053333  0.08101085
   0.09080000  0.39386667  0.08101085
   0.09080000  0.72720000  0.08101085
   0.59080000  0.06053333  0.08101085
   0.59080000  0.39386667  0.08101085
   0.59080000  0.72720000  0.08101085
   0.22731605  0.15084330  0.12269821
   0.22640313  0.48468811  0.12549041
   0.22467912  0.81928778  0.12334333
   0.72246325  0.15429511  0.12436734
   0.72652656  0.48452131  0.12356255
   0.73034699  0.81625136  0.12427019
   0.35273103  0.24617613  0.16541906
   0.35730465  0.57656193  0.16445450
   0.36199189  0.90759811  0.16470754
   0.85356263  0.24507832  0.16489687
   0.86294102  0.57390909  0.16524844
   0.85727104  0.91024111  0.16587599
   0.99982001  0.99363569  0.20696647
   0.98671164  0.33961860  0.20797905
   0.99361776  0.66898318  0.21199655
   0.49326424  0.00375450  0.20636221
   0.49630283  0.33367089  0.21174850
   0.49518038  0.66455809  0.20736412
   0.13503070  0.08869448  0.24464863
   0.14927299  0.42774235  0.26912184
   0.13371897  0.74304162  0.25511617
   0.63618424  0.08971906  0.24867478
   0.61705941  0.42138709  0.25431381
   0.64172663  0.75278340  0.24888366
   0.25513138  0.50407392  0.25628202
Direct configuration=    12
   0.31810000  0.21206667  0.00000000
   0.31810000  0.54540000  0.00000000
   0.31810000  0.87873333  0.00000000
   0.81810000  0.21206667  0.00000000
   0.81810000  0.54540000  0.00000000
   0.81810000  0.87873333  0.00000000
   0.45445000  0.30296667  0.04050542
   0.45445000  0.63630000  0.04050542
   0.45445000  0.96963333  0.04050542
   0.95445000  0.30296667  0.04050542
   0.95445000  0.63630000  0.04050542
   0.95445000  0.96963333  0.04050542
   0.09080000  0.06053333  0.08101085
   0.09080000  0.39386667  0.08101085
   0.09080000  0.72720000  0.08101085
   0.59080000  0.06053333  0.08101085
   0.59080000  0.39386667  0.08101085
   0.59080000  0.72720000  0.08101085
   0.22732481  0.15067648  0.12279722
   0.22603896  0.48451075  0.12519746
   0.22521410  0.81839169  0.12341983
   0.72301489  0.15366220  0.12426151
   0.72585636  0.48444025  0.12365818
   0.72965613  0.81616780  0.12417416
   0.35438845  0.24544520  0.16444683
   0.35875753  0.57631483  0.16355419
   0.36228430  0.90793868  0.16431807
   0.85511486  0.24483465  0.16414306
   0.86293588  0.57421920  0.16432438
   0.85768820  0.91066394  0.16500608
   0.99879835  0.99497883  0.20686261
   0.98907884  0.33785395  0.20759413
   0.99410240  0.66793653  0.21137596
   0.49329162  0.00273742  0.20647267
   0.49571171  0.33347697  0.21121650
   0.49579918  0.66503910  0.20704472
   0.13634156  0.08854862  0.24472078
   0.15070278  0.42940413  0.26627342
   0.13504490  0.74467556  0.25382771
   0.63625877  0.09054706  0.24826476
   0.61917492  0.42225776  0.25314025
   0.64164268  0.75369842  0.24842900
   0.25054749  0.50081280  0.26959333
Direct configuration=    13
   0.31810000  0.21206667  0.00000000
   0.31810000  0.54540000  0.00000000
   0.31810000  0.87873333  0.00000000
   0.81810000  0.21206667  0.00000000
   0.81810000  0.54540000  0.00000000
   0.81810000  0.87873333  0.00000000
   0.45445000  0.30296667  0.04050542
   0.45445000  0.63630000  0.04050542
   0.45445000  0.96963333  0.04050542
   0.95445000  0.30296667  0.04050542
   0.95445000  0.63630000  0.04050542
   0.95445000  0.96963333  0.04050542
   0.09080000  0.06053333  0.08101085
   0.09080000  0.39386667  0.08101085
   0.09080000  0.72720000  0.08101085
   0.59080000  0.06053333  0.08101085
   0.59080000  0.39386667  0.08101085
   0.59080000  0.72720000  0.08101085
   0.22732043  0.15075989  0.12274771
   0.22622104  0.48459943  0.12534394
   0.22494661  0.81883974  0.12338158
   0.72273907  0.15397866  0.12431443
   0.72619146  0.48448078  0.12361037
   0.73000156  0.81620958  0.12422218
   0.35355974  0.24581067  0.16493295
   0.35803109  0.57643838  0.16400435
   0.36213809  0.90776839  0.16451281
   0.85433875  0.24495648  0.16451996
   0.86293845  0.57406414  0.16478641
   0.85747962  0.91045253  0.16544103
   0.99930918  0.99430726  0.20691454
   0.98789524  0.33873628  0.20778659
   0.99386008  0.66845985  0.21168626
   0.49327793  0.00324596  0.20641744
   0.49600727  0.33357393  0.21148250
   0.49548978  0.66479860  0.20720442
   0.13568613  0.08862155  0.24468471
   0.14998788  0.42857324  0.26769763
   0.13438193  0.74385859  0.25447194
   0.63622151  0.09013306  0.24846977
   0.61811717  0.42182242  0.25372703
   0.64168466  0.75324091  0.24865633
   0.25283943  0.50244336  0.26293767
Direct configuration=    14
   0.31810000  0.21206667  0.00000000
   0.31810000  0.54540000  0.00000000
   0.31810000  0.87873333  0.00000000
   0.81810000  0.21206667  0.00000000
   0.81810000  0.54540000  0.00000000
   0.81810000  0.87873333  0.00000000
   0.45445000  0.30296667  0.04050542
   0.45445000  0.63630000  0.04050542
   0.45445000  0.96963333  0.04050542
   0.95445000  0.30296667  0.04050542
   0.95445000  0.63630000  0.04050542
   0.95445000  0.96963333  0.04050542
   0.09080000  0.06053333  0.08101085
   0.09080000  0.39386667  0.08101085
   0.09080000  0.72720000  0.08101085
   0.59080000  0.06053333  0.08101085
   0.59080000  0.39386667  0.08101085
   0.59080000  0.72720000  0.08101085
   0.22678607  0.15100615  0.12294166
   0.22620736  0.48461926  0.12540618
   0.22473883  0.81893181  0.12345311
   0.72273141  0.15370311  0.12440093
   0.72623358  0.48450328  0.12368210
   0.72958286  0.81644442  0.12432522
   0.35369245  0.24570526  0.16548802
   0.35798875  0.57662493  0.16444717
   0.36228761  0.90743712  0.16474326
   0.85447514  0.24473170  0.16495201
   0.86223225  0.57436793  0.16531423
   0.85772727  0.91011619  0.16582347
   0.00015119  0.99367616  0.20723796
   0.98740502  0.33920240  0.20839086
   0.98778385  0.67194386  0.21068136
   0.49306774  0.00353698  0.20662916
   0.50204905  0.32879629  0.21027795
   0.49514220  0.66454494  0.20774813
   0.13469749  0.08900711  0.24452329
   0.14633570  0.42627076  0.26758440
   0.13325614  0.74419911  0.25419454
   0.63627626  0.08903747  0.24815963
   0.61884881  0.42114815  0.25344679
   0.63957080  0.75342933  0.24824397
   0.25828091  0.50710589  0.26063785
Direct configuration=    15
   0.31810000  0.21206667  0.00000000
   0.31810000  0.54540000  0.00000000
   0.31810000  0.87873333  0.00000000
   0.81810000  0.21206667  0.00000000
   0.81810000  0.54540000  0.00000000
   0.81810000  0.87873333  0.00000000
   0.45445000  0.30296667  0.04050542
   0.45445000  0.63630000  0.04050542
   0.45445000  0.96963333  0.04050542
   0.95445000  0.30296667  0.04050542
   0.95445000  0.63630000  0.04050542
   0.95445000  0.96963333  0.04050542
   0.09080000  0.06053333  0.08101085
   0.09080000  0.39386667  0.08101085
   0.09080000  0.72720000  0.08101085
   0.59080000  0.06053333  0.08101085
   0.59080000  0.39386667  0.08101085
   0.59080000  0.72720000  0.08101085
   0.22647576  0.15114917  0.12305429
   0.22619942  0.48463077  0.12544233
   0.22461816  0.81898529  0.12349465
   0.72272697  0.15354310  0.12445117
   0.72625803  0.48451635  0.12372377
   0.72933971  0.81658081  0.12438505
   0.35376951  0.24564404  0.16581037
   0.35796415  0.57673326  0.16470433
   0.36237444  0.90724474  0.16487709
   0.85455435  0.24460116  0.16520292
   0.86182214  0.57454435  0.16562076
   0.85787108  0.90992086  0.16604557
   0.00064017  0.99330966  0.20742578
   0.98712034  0.33947309  0.20874177
   0.98425518  0.67396714  0.21009778
   0.49294567  0.00370599  0.20675212
   0.50555771  0.32602175  0.20957843
   0.49494034  0.66439764  0.20806388
   0.13412335  0.08923101  0.24442955
   0.14421475  0.42493364  0.26751864
   0.13260235  0.74439687  0.25403345
   0.63630806  0.08840122  0.24797952
   0.61927370  0.42075658  0.25328404
   0.63834321  0.75353876  0.24800450
   0.26144096  0.50981358  0.25930227
Direct configuration=    16
   0.31810000  0.21206667  0.00000000
   0.31810000  0.54540000  0.00000000
   0.31810000  0.87873333  0.00000000
   0.81810000  0.21206667  0.00000000
   0.81810000  0.54540000  0.00000000
   0.81810000  0.87873333  0.00000000
   0.45445000  0.30296667  0.04050542
   0.45445000  0.63630000  0.04050542
   0.45445000  0.96963333  0.04050542
   0.95445000  0.30296667  0.04050542
   0.95445000  0.63630000  0.04050542
   0.95445000  0.96963333  0.04050542
   0.09080000  0.06053333  0.08101085
   0.09080000  0.39386667  0.08101085
   0.09080000  0.72720000  0.08101085
   0.59080000  0.06053333  0.08101085
   0.59080000  0.39386667  0.08101085
   0.59080000  0.72720000  0.08101085
   0.22585512  0.15143520  0.12327954
   0.22618353  0.48465380  0.12551463
   0.22437683  0.81909223  0.12357772
   0.72271808  0.15322306  0.12455165
   0.72630695  0.48454248  0.12380709
   0.72885341  0.81685357  0.12450473
   0.35392364  0.24552161  0.16645507
   0.35791497  0.57694993  0.16521865
   0.36254810  0.90685997  0.16514476
   0.85471276  0.24434007  0.16570473
   0.86100192  0.57489718  0.16623381
   0.85815872  0.90953022  0.16648976
   0.00161814  0.99257667  0.20780141
   0.98655097  0.34001448  0.20944360
   0.97719784  0.67801371  0.20893062
   0.49270154  0.00404400  0.20699803
   0.51257503  0.32047268  0.20817939
   0.49453664  0.66410303  0.20869538
   0.13297508  0.08967882  0.24424207
   0.13997286  0.42225939  0.26738713
   0.13129477  0.74479237  0.25371126
   0.63637166  0.08712872  0.24761930
   0.62012348  0.41997343  0.25295854
   0.63588803  0.75375760  0.24752556
   0.26776105  0.51522896  0.25663111
Direct configuration=    17
   0.31810000  0.21206667  0.00000000
   0.31810000  0.54540000  0.00000000
   0.31810000  0.87873333  0.00000000
   0.81810000  0.21206667  0.00000000
   0.81810000  0.54540000  0.00000000
   0.81810000  0.87873333  0.00000000
   0.45445000  0.30296667  0.04050542
   0.45445000  0.63630000  0.04050542
   0.45445000  0.96963333  0.04050542
   0.95445000  0.30296667  0.04050542
   0.95445000  0.63630000  0.04050542
   0.95445000  0.96963333  0.04050542
   0.09080000  0.06053333  0.08101085
   0.09080000  0.39386667  0.08101085
   0.09080000  0.72720000  0.08101085
   0.59080000  0.06053333  0.08101085
   0.59080000  0.39386667  0.08101085
   0.59080000  0.72720000  0.08101085
   0.22516823  0.15174748  0.12361443
   0.22579059  0.48460204  0.12538658
   0.22463512  0.81864006  0.12379951
   0.72380924  0.15203334  0.12436404
   0.72595289  0.48463126  0.12406321
   0.72717575  0.81753547  0.12437268
   0.35340456  0.24558023  0.16654159
   0.35836256  0.57676411  0.16517893
   0.36247540  0.90669181  0.16512153
   0.85605247  0.24410083  0.16560633
   0.86069637  0.57450693  0.16634954
   0.85855354  0.90976276  0.16628399
   0.00367746  0.99119901  0.20819902
   0.98724329  0.33992322  0.21013786
   0.97538297  0.67730262  0.20832793
   0.48979696  0.00510393  0.20735809
   0.51090079  0.31982099  0.20795551
   0.49427177  0.66398323  0.20912845
   0.13261574  0.08993812  0.24432196
   0.14121471  0.42379912  0.26499017
   0.13108285  0.74444383  0.25301134
   0.63593596  0.08650896  0.24739930
   0.61946242  0.41979409  0.25230777
   0.63338726  0.75416435  0.24710442
   0.27294080  0.51656293  0.25680520
Direct configuration=    18
   0.31810000  0.21206667  0.00000000
   0.31810000  0.54540000  0.00000000
   0.31810000  0.87873333  0.00000000
   0.81810000  0.21206667  0.00000000
   0.81810000  0.54540000  0.00000000
   0.81810000  0.87873333  0.00000000
   0.45445000  0.30296667  0.04050542
   0.45445000  0.63630000  0.04050542
   0.45445000  0.96963333  0.04050542
   0.95445000  0.30296667  0.04050542
   0.95445000  0.63630000  0.04050542
   0.95445000  0.96963333  0.04050542
   0.09080000  0.06053333  0.08101085
   0.09080000  0.39386667  0.08101085
   0.09080000  0.72720000  0.08101085
   0.59080000  0.06053333  0.08101085
   0.59080000  0.39386667  0.08101085
   0.59080000  0.72720000  0.08101085
   0.22310759  0.15268432  0.12461909
   0.22461176  0.48444677  0.12500244
   0.22540998  0.81728353  0.12446488
   0.72708273  0.14846416  0.12380124
   0.72489074  0.48489763  0.12483160
   0.72214277  0.81958118  0.12397655
   0.35184729  0.24575609  0.16680117
   0.35970531  0.57620665  0.16505976
   0.36225732  0.90618734  0.16505183
   0.86007160  0.24338311  0.16531112
   0.85977975  0.57333619  0.16669672
   0.85973802  0.91046040  0.16566670
   0.00985542  0.98706603  0.20939186
   0.98932024  0.33964943  0.21222062
   0.96993837  0.67516937  0.20651986
   0.48108321  0.00828370  0.20843827
   0.50587806  0.31786592  0.20728389
   0.49347719  0.66362385  0.21042764
   0.13153772  0.09071604  0.24456165
   0.14494025  0.42841832  0.25779929
   0.13044708  0.74339820  0.25091159
   0.63462885  0.08464969  0.24673932