   38   38  150    1
  0.3386168E+02  0.7529542E-09  0.7529542E-09  0.2620742E-08  0.5000000E-15
  1.000000000000000E-004
  CAR 
 unknown system                          
    620      7    372
 
  0.0000000E+00  0.0000000E+00  0.0000000E+00  0.6250000E-01
    1      -71.206602
    2      -71.197894
    3      -71.160185
    4      -71.155105
    5      -71.119042
    6      -71.115546
    7      -71.111722
    8      -71.105619
    9      -71.101587
   10      -71.087000
   11      -71.068425
   12      -71.063198
   13      -71.059714
   14      -71.057841
   15      -71.054159
   16      -71.048303
   17      -71.047514
   18      -71.046119
   19      -71.045682
   20      -71.045509
   21      -71.043727
   22      -71.040410
   23      -71.039399
   24      -71.037909
   25      -71.036354
   26      -71.035103
   27      -71.032637
   28      -71.032591
   29      -71.032492
   30      -71.029515
   31      -71.027140
   32      -71.022363
   33      -71.016573
   34      -71.015354
   35      -71.007463
   36      -71.003886
   37      -71.002253
   38      -70.999385
   39      -70.994853
   40      -70.994785
   41      -70.993842
   42      -70.991149
   43      -70.989675
   44      -70.988844
   45      -70.985830
   46      -70.982019
   47      -70.981203
   48      -70.979062
   49      -70.978889
   50      -70.977243
   51      -70.968584
   52      -70.967061
   53      -70.965937
   54      -70.962730
   55      -70.956891
   56      -70.946726
   57      -70.944718
   58      -70.939019
   59      -70.936513
   60      -70.928620
   61      -70.920359
   62      -70.917057
   63      -70.912455
   64      -70.908792
   65      -70.899017
   66      -70.891424
   67      -70.837663
   68      -70.834443
   69      -70.830834
   70      -70.830769
   71      -70.830052
   72      -70.826337
   73      -70.824341
   74      -70.821289
   75      -70.818382
   76      -70.817746
   77      -70.799233
   78      -70.787201
   79      -70.780385
   80      -70.779566
   81      -70.776176
   82      -70.775169
   83      -70.771655
   84      -70.770500
   85      -70.769691
   86      -70.769463
   87      -70.766639
   88      -70.752667
   89      -70.752366
   90      -70.739116
   91      -70.735116
   92      -70.732633
   93      -70.721972
   94      -70.719183
   95      -70.718969
   96      -70.717285
   97      -70.716117
   98      -70.713298
   99      -70.710813
  100      -70.700131
  101      -70.698556
  102      -70.697562
  103      -70.689944
  104      -70.684797
  105      -70.678933
  106      -70.676213
  107      -70.625369
  108      -70.621626
  109      -15.813672
  110      -10.238791
  111       -8.940208
  112       -8.410183
  113       -7.403030
  114       -7.240734
  115       -7.149743
  116       -7.139715
  117       -7.112042
  118       -7.094902
  119       -7.044571
  120       -6.641676
  121       -6.579511
  122       -6.422579
  123       -6.363013
  124       -6.359917
  125       -6.350501
  126       -6.197716
  127       -5.918092
  128       -5.912869
  129       -5.736478
  130       -5.654979
  131       -5.625531
  132       -5.494797
  133       -5.433514
  134       -5.368299
  135       -5.312356
  136       -5.297355
  137       -5.294753
  138       -5.267540
  139       -5.243364
  140       -5.220627
  141       -5.156238
  142       -5.144472
  143       -5.108700
  144       -5.098591
  145       -5.096886
  146       -5.096398
  147       -5.077604
  148       -5.059951
  149       -5.050210
  150       -5.032840
  151       -5.024897
  152       -4.991702
  153       -4.989756
  154       -4.973983
  155       -4.949699
  156       -4.917289
  157       -4.846960
  158       -4.811599
  159       -4.806037
  160       -4.783271
  161       -4.775885
  162       -4.772437
  163       -4.754444
  164       -4.739385
  165       -4.637888
  166       -4.624719
  167       -4.584870
  168       -4.463218
  169       -4.414795
  170       -4.409119
  171       -4.396856
  172       -4.373659
  173       -4.351139
  174       -4.322647
  175       -4.308208
  176       -4.291587
  177       -4.270778
  178       -4.246323
  179       -4.242397
  180       -4.234312
  181       -4.210309
  182       -4.207704
  183       -4.185983
  184       -4.176194
  185       -4.161218
  186       -4.149160
  187       -4.050654
  188       -4.045533
  189       -4.028050
  190       -4.022480
  191       -4.016997
  192       -3.985090
  193       -3.983035
  194       -3.975649
  195       -3.973493
  196       -3.972332
  197       -3.920049
  198       -3.908776
  199       -3.872055
  200       -3.870677
  201       -3.867486
  202       -3.852027
  203       -3.850460
  204       -3.837351
  205       -3.829341
  206       -3.817182
  207       -3.814234
  208       -3.812773
  209       -3.811476
  210       -3.804290
  211       -3.796979
  212       -3.768772
  213       -3.767490
  214       -3.747501
  215       -3.742977
  216       -3.738254
  217       -3.692492
  218       -3.680129
  219       -3.659486
  220       -3.604257
  221       -3.592850
  222       -3.530852
  223       -3.519933
  224       -3.504575
  225       -3.488698
  226       -3.424106
  227       -3.400773
  228       -3.398541
  229       -3.387180
  230       -3.379412
  231       -3.353966
  232       -3.344338
  233       -3.335480
  234       -3.321935
  235       -3.307639
  236       -3.302764
  237       -3.294903
  238       -3.290358
  239       -3.225731
  240       -3.217127
  241       -3.171849
  242       -3.166898
  243       -3.159173
  244       -3.158906
  245       -3.138306
  246       -3.081650
  247       -3.069186
  248       -3.060027
  249       -3.049898
  250       -3.048234
  251       -3.035652
  252       -3.032954
  253       -3.021096
  254       -3.008588
  255       -2.986068
  256       -2.954910
  257       -2.926065
  258       -2.924442
  259       -2.920997
  260       -2.913600
  261       -2.891680
  262       -2.888518
  263       -2.864022
  264       -2.862427
  265       -2.847167
  266       -2.844499
  267       -2.840126
  268       -2.836630
  269       -2.832967
  270       -2.822264
  271       -2.811853
  272       -2.802643
  273       -2.792439
  274       -2.781379
  275       -2.766327
  276       -2.762990
  277       -2.750495
  278       -2.746050
  279       -2.740820
  280       -2.734732
  281       -2.731738
  282       -2.725173
  283       -2.712390
  284       -2.698796
  285       -2.695165
  286       -2.690916
  287       -2.685473
  288       -2.684118
  289       -2.680096
  290       -2.669244
  291       -2.668143
  292       -2.659330
  293       -2.657790
  294       -2.647738
  295       -2.644999
  296       -2.624563
  297       -2.602219
  298       -2.590771
  299       -2.577543
  300       -2.565171
  301       -2.540211
  302       -2.531191
  303       -2.523410
  304       -2.505489
  305       -2.499013
  306       -2.275782
  307       -2.258564
  308       -1.988041
  309       -1.760634
  310       -1.395823
  311       -1.356762
  312       -1.349643
  313       -0.995826
  314       -0.860295
  315       -0.830871
  316        0.451160
  317        0.903390
  318        1.041246
  319        1.129812
  320        1.564159
  321        1.569911
  322        2.582742
  323        2.598951
  324        2.608367
  325        2.649670
  326        2.758802
  327        2.886430
  328        2.923742
  329        3.194413
  330        3.219424
  331        3.370311
  332        3.606025
  333        3.616264
  334        3.629245
  335        3.677568
  336        3.711410
  337        3.949342
  338        4.048359
  339        4.056705
  340        4.428543
  341        4.429980
  342        4.518014
  343        4.588392
  344        4.611642
  345        4.834213
  346        5.432408
  347        5.554761
  348        5.750957
  349        5.795959
  350        5.950238
  351        6.072812
  352        6.088307
  353        6.111534
  354        6.228085
  355        6.237647
  356        6.242117
  357        6.437659
  358        6.741737
  359        6.760281
  360        6.786802
  361        6.827844
  362        6.852821
  363        6.968429
  364        7.025435
  365        7.151544
  366        7.201588
  367        7.258876
  368        7.292094
  369        7.298410
  370        7.382433
  371        7.468034
  372        7.515621
 
  0.2500000E+00  0.5551115E-16  0.0000000E+00  0.2500000E+00
    1      -71.208027
    2      -71.196382
    3      -71.160328
    4      -71.155137
    5      -71.118720
    6      -71.114954
    7      -71.111079
    8      -71.107325
    9      -71.100192
   10      -71.089515
   11      -71.071554
   12      -71.065789
   13      -71.062214
   14      -71.059021
   15      -71.056751
   16      -71.054071
   17      -71.052259
   18      -71.048702
   19      -71.047960
   20      -71.046282
   21      -71.040434
   22      -71.036523
   23      -71.036215
   24      -71.035378
   25      -71.033284
   26      -71.032243
   27      -71.030533
   28      -71.028951
   29      -71.028030
   30      -71.026114
   31      -71.021842
   32      -71.019997
   33      -71.015430
   34      -71.012339
   35      -71.007277
   36      -71.003893
   37      -71.001647
   38      -70.998850
   39      -70.997629
   40      -70.996039
   41      -70.995578
   42      -70.991695
   43      -70.989512
   44      -70.987234
   45      -70.984735
   46      -70.981756
   47      -70.980777
   48      -70.979916
   49      -70.977098
   50      -70.974377
   51      -70.970657
   52      -70.967144
   53      -70.964763
   54      -70.962748
   55      -70.957938
   56      -70.946341
   57      -70.945315
   58      -70.941547
   59      -70.937206
   60      -70.927636
   61      -70.920221
   62      -70.918908
   63      -70.912201
   64      -70.908756
   65      -70.899969
   66      -70.892131
   67      -70.849064
   68      -70.841754
   69      -70.839171
   70      -70.833875
   71      -70.833718
   72      -70.818386
   73      -70.817189
   74      -70.810417
   75      -70.806799
   76      -70.802256
   77      -70.802086
   78      -70.788409
   79      -70.783029
   80      -70.780056
   81      -70.777487
   82      -70.777386
   83      -70.773282
   84      -70.770185
   85      -70.769359
   86      -70.765016
   87      -70.764652
   88      -70.758192
   89      -70.753526
   90      -70.739756
   91      -70.734895
   92      -70.732438
   93      -70.721614
   94      -70.720727
   95      -70.719305
   96      -70.717290
   97      -70.715719
   98      -70.713341
   99      -70.710751
  100      -70.700000
  101      -70.698928
  102      -70.697502
  103      -70.689860
  104      -70.684641
  105      -70.678821
  106      -70.676178
  107      -70.625200
  108      -70.621608
  109      -15.812731
  110      -10.012288
  111       -8.756136
  112       -8.464454
  113       -8.262240
  114       -7.571400
  115       -7.540761
  116       -7.286174
  117       -7.164528
  118       -6.671054
  119       -6.589362
  120       -6.526395
  121       -6.486396
  122       -6.359029
  123       -6.278871
  124       -6.172717
  125       -6.061930
  126       -6.021314
  127       -5.975199
  128       -5.835660
  129       -5.728019
  130       -5.635422
  131       -5.574772
  132       -5.486415
  133       -5.461428
  134       -5.416299
  135       -5.378805
  136       -5.372752
  137       -5.363627
  138       -5.343998
  139       -5.325885
  140       -5.306906
  141       -5.283256
  142       -5.259236
  143       -5.194941
  144       -5.179986
  145       -5.161738
  146       -5.151936
  147       -5.112167
  148       -5.086363
  149       -5.040548
  150       -5.025668
  151       -4.993555
  152       -4.958021
  153       -4.942423
  154       -4.903982
  155       -4.895127
  156       -4.854225
  157       -4.840343
  158       -4.822654
  159       -4.792177
  160       -4.766664
  161       -4.743074
  162       -4.695734
  163       -4.671740
  164       -4.646096
  165       -4.633985
  166       -4.613225
  167       -4.543615
  168       -4.533975
  169       -4.528049
  170       -4.484620
  171       -4.459495
  172       -4.426865
  173       -4.411857
  174       -4.369398
  175       -4.323589
  176       -4.311346
  177       -4.287840
  178       -4.278158
  179       -4.265648
  180       -4.248466
  181       -4.231472
  182       -4.208484
  183       -4.183166
  184       -4.168293
  185       -4.145279
  186       -4.137159
  187       -4.113121
  188       -4.068967
  189       -4.055610
  190       -4.042767
  191       -4.026293
  192       -4.008386
  193       -3.988163
  194       -3.975920
  195       -3.959747
  196       -3.959029
  197       -3.939269
  198       -3.931203
  199       -3.920042
  200       -3.913924
  201       -3.909617
  202       -3.905373
  203       -3.891452
  204       -3.882310
  205       -3.870832
  206       -3.860858
  207       -3.849345
  208       -3.841260
  209       -3.828410
  210       -3.807426
  211       -3.789899
  212       -3.779429
  213       -3.751531
  214       -3.740034
  215       -3.726031
  216       -3.712915
  217       -3.703125
  218       -3.698391
  219       -3.697505
  220       -3.690492
  221       -3.671114
  222       -3.648495
  223       -3.610046
  224       -3.566761
  225       -3.553020
  226       -3.526539
  227       -3.487942
  228       -3.468472
  229       -3.441047
  230       -3.417352
  231       -3.409001
  232       -3.391450
  233       -3.373193
  234       -3.366773
  235       -3.347163
  236       -3.323155
  237       -3.317483
  238       -3.296145
  239       -3.266998
  240       -3.248270
  241       -3.239634
  242       -3.229148
  243       -3.206216
  244       -3.178506
  245       -3.168896
  246       -3.150396
  247       -3.130592
  248       -3.115788
  249       -3.089457
  250       -3.087961
  251       -3.074628
  252       -3.062657
  253       -3.044024
  254       -3.030615
  255       -3.023813
  256       -3.007550
  257       -2.988265
  258       -2.966717
  259       -2.955401
  260       -2.942544
  261       -2.936099
  262       -2.915550
  263       -2.902574
  264       -2.888556
  265       -2.875372
  266       -2.870140
  267       -2.848816
  268       -2.828945
  269       -2.810608
  270       -2.799829
  271       -2.791365
  272       -2.780166
  273       -2.755756
  274       -2.745265
  275       -2.736097
  276       -2.720784
  277       -2.716230
  278       -2.690118
  279       -2.678288
  280       -2.672379
  281       -2.666712
  282       -2.656603
  283       -2.642477
  284       -2.636288
  285       -2.627961
  286       -2.618813
  287       -2.612937
  288       -2.606319
  289       -2.601545
  290       -2.588482
  291       -2.568324
  292       -2.551646
  293       -2.544429
  294       -2.539494
  295       -2.524388
  296       -2.517387
  297       -2.502026
  298       -2.473742
  299       -2.414705
  300       -2.351891
  301       -2.347280
  302       -2.255746
  303       -2.184276
  304       -2.157206
  305       -2.062418
  306       -1.853211
  307       -1.794381
  308       -1.739703
  309       -1.572779
  310       -1.480322
  311       -1.278422
  312       -0.901037
  313       -0.506465
  314       -0.405151
  315       -0.329516
  316        0.208910
  317        0.487913
  318        0.603682
  319        0.640595
  320        0.959058
  321        1.317745
  322        1.355651
  323        1.593828
  324        1.791375
  325        1.941999
  326        2.273072
  327        2.411980
  328        2.578010
  329        2.852814
  330        3.184586
  331        3.223340
  332        3.311232
  333        3.559036
  334        3.680350
  335        3.975236
  336        4.126617
  337        4.226191
  338        4.380108
  339        4.624080
  340        4.658767
  341        4.707799
  342        4.796708
  343        4.989742
  344        5.077608
  345        5.177048
  346        5.247480
  347        5.387924
  348        5.460645
  349        5.505908
  350        5.683248
  351        5.738628
  352        5.883126
  353        5.916859
  354        5.969302
  355        6.074441
  356        6.245443
  357        6.325244
  358        6.350871
  359        6.397607
  360        6.429638
  361        6.553905
  362        6.613876
  363        6.683945
  364        6.770320
  365        6.886391
  366        7.104495
  367        7.199087
  368        7.308323
  369        7.329130
  370        7.446019
  371        7.461478
  372        7.518094
 
  0.5000000E+00  0.1110223E-15  0.0000000E+00  0.1250000E+00
    1      -71.209383
    2      -71.195320
    3      -71.160735
    4      -71.155439
    5      -71.118552
    6      -71.114651
    7      -71.110186
    8      -71.109259
    9      -71.099248
   10      -71.092056
   11      -71.074274
   12      -71.069068
   13      -71.062986
   14      -71.060256
   15      -71.059330
   16      -71.057232
   17      -71.054587
   18      -71.049807
   19      -71.049010
   20      -71.047552
   21      -71.039194
   22      -71.036459
   23      -71.034928
   24      -71.033969
   25      -71.032847
   26      -71.032288
   27      -71.029336
   28      -71.027399
   29      -71.023115
   30      -71.020994
   31      -71.018494
   32      -71.012818
   33      -71.009734
   34      -71.008837
   35      -71.006206
   36      -71.004411
   37      -71.003858
   38      -71.000681
   39      -70.998491
   40      -70.997226
   41      -70.995141
   42      -70.992325
   43      -70.990305
   44      -70.988307
   45      -70.986129
   46      -70.983113
   47      -70.980200
   48      -70.979778
   49      -70.977552
   50      -70.974445
   51      -70.970787
   52      -70.968937
   53      -70.964508
   54      -70.959409
   55      -70.956811
   56      -70.947123
   57      -70.946144
   58      -70.944704
   59      -70.939175
   60      -70.927022
   61      -70.921145
   62      -70.920042
   63      -70.912082
   64      -70.908918
   65      -70.901574
   66      -70.893115
   67      -70.854980
   68      -70.845287
   69      -70.842837
   70      -70.837839
   71      -70.837683
   72      -70.812165
   73      -70.811312
   74      -70.804631
   75      -70.798288
   76      -70.793383
   77      -70.791013
   78      -70.790940
   79      -70.789009
   80      -70.782579
   81      -70.779777
   82      -70.778353
   83      -70.776214
   84      -70.772527
   85      -70.769202
   86      -70.768678
   87      -70.761362
   88      -70.759198
   89      -70.756280
   90      -70.740934
   91      -70.735289
   92      -70.732380
   93      -70.723108
   94      -70.721342
   95      -70.719720
   96      -70.717465
   97      -70.715423
   98      -70.713352
   99      -70.710657
  100      -70.699952
  101      -70.699646
  102      -70.697381
  103      -70.689756
  104      -70.684599
  105      -70.678751
  106      -70.676106
  107      -70.625133
  108      -70.621555
  109      -15.811829
  110       -9.383133
  111       -9.323405
  112       -8.520490
  113       -8.117081
  114       -8.067077
  115       -7.723294
  116       -7.639782
  117       -6.886793
  118       -6.736465
  119       -6.684586
  120       -6.456692
  121       -6.113826
  122       -5.992737
  123       -5.982131
  124       -5.932533
  125       -5.881384
  126       -5.842059
  127       -5.836673
  128       -5.820829
  129       -5.759443
  130       -5.721487
  131       -5.669716
  132       -5.657785
  133       -5.634401
  134       -5.621599
  135       -5.503113
  136       -5.481782
  137       -5.452009
  138       -5.428221
  139       -5.403803
  140       -5.370102
  141       -5.307879
  142       -5.241454
  143       -5.239468
  144       -5.213627
  145       -5.188919
  146       -5.180098
  147       -5.157991
  148       -5.061907
  149       -5.048345
  150       -5.029111
  151       -4.986200
  152       -4.978260
  153       -4.911459
  154       -4.891583
  155       -4.844260
  156       -4.828064
  157       -4.816940
  158       -4.787238
  159       -4.777664
  160       -4.768154
  161       -4.706811
  162       -4.651284
  163       -4.637182
  164       -4.611401
  165       -4.588378
  166       -4.576200
  167       -4.563159
  168       -4.547329
  169       -4.540709
  170       -4.504641
  171       -4.467356
  172       -4.432208
  173       -4.420264
  174       -4.390881
  175       -4.348884
  176       -4.341586
  177       -4.318501
  178       -4.298603
  179       -4.281586
  180       -4.269905
  181       -4.260693
  182       -4.245583
  183       -4.237430
  184       -4.210450
  185       -4.198814
  186       -4.195546
  187       -4.187380
  188       -4.174910
  189       -4.156003
  190       -4.118313
  191       -4.106997
  192       -4.096775
  193       -4.042021
  194       -4.033349
  195       -4.018508
  196       -4.003248
  197       -3.994199
  198       -3.974495
  199       -3.950921
  200       -3.944690
  201       -3.931797
  202       -3.904636
  203       -3.885859
  204       -3.863087
  205       -3.825674
  206       -3.816544
  207       -3.811618
  208       -3.802239
  209       -3.781145
  210       -3.773855
  211       -3.764843
  212       -3.750351
  213       -3.750051
  214       -3.728031
  215       -3.717853
  216       -3.711392
  217       -3.699709
  218       -3.688290
  219       -3.652342
  220       -3.633287
  221       -3.620270
  222       -3.588335
  223       -3.567556
  224       -3.554570
  225       -3.538267
  226       -3.518461
  227       -3.511918
  228       -3.504563
  229       -3.492915
  230       -3.482406
  231       -3.476714
  232       -3.451702
  233       -3.437721
  234       -3.430106
  235       -3.425460
  236       -3.392383
  237       -3.385861
  238       -3.377401
  239       -3.357571
  240       -3.350105
  241       -3.348068
  242       -3.301380
  243       -3.285845
  244       -3.266880
  245       -3.222846
  246       -3.187888
  247       -3.177873
  248       -3.149377
  249       -3.140046
  250       -3.122891
  251       -3.089771
  252       -3.077437
  253       -3.045160
  254       -3.031387
  255       -3.019589
  256       -3.001016
  257       -2.973143
  258       -2.971236
  259       -2.964838
  260       -2.953205
  261       -2.939823
  262       -2.934711
  263       -2.930528
  264       -2.903034
  265       -2.892095
  266       -2.886662
  267       -2.879782
  268       -2.844726
  269       -2.812067
  270       -2.796424
  271       -2.786263
  272       -2.763681
  273       -2.749534
  274       -2.736506
  275       -2.710787
  276       -2.699184
  277       -2.674142
  278       -2.670722
  279       -2.657977
  280       -2.647324
  281       -2.640705
  282       -2.631065
  283       -2.623673
  284       -2.602922
  285       -2.587623
  286       -2.574666
  287       -2.562140
  288       -2.555648
  289       -2.551455
  290       -2.535763
  291       -2.535061
  292       -2.526249
  293       -2.487879
  294       -2.475527
  295       -2.464728
  296       -2.462895
  297       -2.447537
  298       -2.412280
  299       -2.319638
  300       -2.266711
  301       -2.178605
  302       -2.117291
  303       -1.809685
  304       -1.517404
  305       -1.403224
  306       -1.155782
  307       -1.078091
  308       -1.059215
  309       -1.004916
  310       -0.989416
  311       -0.841600
  312       -0.553205
  313       -0.497968
  314       -0.329729
  315       -0.299804
  316       -0.294203
  317        0.031901
  318        0.323125
  319        0.518538
  320        0.544039
  321        0.635740
  322        0.702211
  323        0.811634
  324        0.991960
  325        1.231956
  326        1.267881
  327        2.368238
  328        2.655288
  329        2.789016
  330        2.826444
  331        2.908022
  332        3.187054
  333        3.481959
  334        3.857325
  335        3.997957
  336        4.125700
  337        4.151268
  338        4.356840
  339        4.433641
  340        4.522390
  341        4.583800
  342        4.673809
  343        4.803101
  344        4.925817
  345        5.044955
  346        5.290447
  347        5.349885
  348        5.434564
  349        5.476388
  350        5.510087
  351        5.612870
  352        5.660155
  353        5.749497
  354        5.809882
  355        5.960275
  356        6.177956
  357        6.375587
  358        6.478834
  359        6.509684
  360        6.607201
  361        6.626197
  362        6.752278
  363        6.848147
  364        6.932496
  365        6.996219
  366        7.078425
  367        7.113840
  368        7.191188
  369        7.289466
  370        7.339923
  371        7.386299
  372        7.623761
 
  0.2500000E+00  0.2500000E+00  0.0000000E+00  0.1250000E+00
    1      -71.206565
    2      -71.197789
    3      -71.160829
    4      -71.155142
    5      -71.119102
    6      -71.114989
    7      -71.110795
    8      -71.105534
    9      -71.101672
   10      -71.088163
   11      -71.073999
   12      -71.065780
   13      -71.061641
   14      -71.058347
   15      -71.056766
   16      -71.053915
   17      -71.053175
   18      -71.048851
   19      -71.047608
   20      -71.044923
   21      -71.041737
   22      -71.037209
   23      -71.036007
   24      -71.033845
   25      -71.033662
   26      -71.032596
   27      -71.030484
   28      -71.029739
   29      -71.028249
   30      -71.027793
   31      -71.022197
   32      -71.018213
   33      -71.015211
   34      -71.011488
   35      -71.005463
   36      -71.003693
   37      -71.001034
   38      -70.998053
   39      -70.996345
   40      -70.996330
   41      -70.993933
   42      -70.989684
   43      -70.989152
   44      -70.988531
   45      -70.986686
   46      -70.982032
   47      -70.981822
   48      -70.979281
   49      -70.977982
   50      -70.976291
   51      -70.971059
   52      -70.968181
   53      -70.965856
   54      -70.965370
   55      -70.958770
   56      -70.946378
   57      -70.944681
   58      -70.939831
   59      -70.933502
   60      -70.928797
   61      -70.920184
   62      -70.917200
   63      -70.912259
   64      -70.908919
   65      -70.899906
   66      -70.893597
   67      -70.847110
   68      -70.843312
   69      -70.838854
   70      -70.834759
   71      -70.834094
   72      -70.818962
   73      -70.817641
   74      -70.808354
   75      -70.807593
   76      -70.805323
   77      -70.802114
   78      -70.789729
   79      -70.782677
   80      -70.779636
   81      -70.777662
   82      -70.774488
   83      -70.771899
   84      -70.771261
   85      -70.765903
   86      -70.765697
   87      -70.764902
   88      -70.758187
   89      -70.753568
   90      -70.738703
   91      -70.736579
   92      -70.732427
   93      -70.721896
   94      -70.720192
   95      -70.719577
   96      -70.718919
   97      -70.715864
   98      -70.713206
   99      -70.710860
  100      -70.699971
  101      -70.698382
  102      -70.697525
  103      -70.689856
  104      -70.684629
  105      -70.678849
  106      -70.676159
  107      -70.625226
  108      -70.621570
  109      -15.812682
  110      -10.013848
  111       -8.800922
  112       -8.462553
  113       -8.177968
  114       -7.606282
  115       -7.569889
  116       -7.240348
  117       -7.071291
  118       -6.814517
  119       -6.672841
  120       -6.501922
  121       -6.466681
  122       -6.314296
  123       -6.279297
  124       -6.161919
  125       -6.043415
  126       -6.005898
  127       -5.908168
  128       -5.855053
  129       -5.803375
  130       -5.665310
  131       -5.592089
  132       -5.482730
  133       -5.446795
  134       -5.405241
  135       -5.404415
  136       -5.365918
  137       -5.359954
  138       -5.338785
  139       -5.301523
  140       -5.300809
  141       -5.273710
  142       -5.264523
  143       -5.259353
  144       -5.172433
  145       -5.145940
  146       -5.137605
  147       -5.088440
  148       -5.063521
  149       -5.057591
  150       -5.009454
  151       -4.993865
  152       -4.937161
  153       -4.925961
  154       -4.896186
  155       -4.873076
  156       -4.864004
  157       -4.839607
  158       -4.815527
  159       -4.785906
  160       -4.768559
  161       -4.763839
  162       -4.710785
  163       -4.698715
  164       -4.647853
  165       -4.643984
  166       -4.613827
  167       -4.549693
  168       -4.543468
  169       -4.502619
  170       -4.498780
  171       -4.488715
  172       -4.404271
  173       -4.401681
  174       -4.358666
  175       -4.313346
  176       -4.307864
  177       -4.286115
  178       -4.283021
  179       -4.267396
  180       -4.242899
  181       -4.230368
  182       -4.209702
  183       -4.184070
  184       -4.173729
  185       -4.155854
  186       -4.128359
  187       -4.107036
  188       -4.074140
  189       -4.054465
  190       -4.052795
  191       -4.026763
  192       -4.020216
  193       -3.993895
  194       -3.990200
  195       -3.966646
  196       -3.958298
  197       -3.951597
  198       -3.939989
  199       -3.937873
  200       -3.915297
  201       -3.906679
  202       -3.893198
  203       -3.889945
  204       -3.883312
  205       -3.869658
  206       -3.853976
  207       -3.846213
  208       -3.837718
  209       -3.834383
  210       -3.804247
  211       -3.785408
  212       -3.773110
  213       -3.752969
  214       -3.749619
  215       -3.716174
  216       -3.715682
  217       -3.701068
  218       -3.700488
  219       -3.693043
  220       -3.691933
  221       -3.675031
  222       -3.652570
  223       -3.647415
  224       -3.585139
  225       -3.555793
  226       -3.550409
  227       -3.491903