       N       E                     dE             d eps       ncg     rms          rms(c)
DAV:   1     0.608336644948E+04    0.60834E+04   -0.40308E+05  6584   0.161E+03
DAV:   2     0.165686664470E+03   -0.59177E+04   -0.57647E+04  5472   0.532E+02
DAV:   3    -0.161060101071E+03   -0.32675E+03   -0.31472E+03  5692   0.152E+02
DAV:   4    -0.171219296233E+03   -0.10159E+02   -0.10015E+02  5576   0.247E+01
DAV:   5    -0.171576111967E+03   -0.35682E+00   -0.35666E+00  6120   0.442E+00    0.603E+01
DAV:   6    -0.207957939664E+03   -0.36382E+02   -0.44815E+02  6116   0.106E+02    0.789E+01
DAV:   7    -0.156398139091E+03    0.51560E+02   -0.10175E+02  6640   0.924E+01    0.523E+01
DAV:   8    -0.152535149771E+03    0.38630E+01   -0.81987E+01  6696   0.657E+01    0.327E+01
DAV:   9    -0.146986388065E+03    0.55488E+01   -0.40915E+01  6676   0.571E+01    0.232E+01
DAV:  10    -0.135599255203E+03    0.11387E+02   -0.23131E+01  6232   0.310E+01    0.977E+00
DAV:  11    -0.135875340274E+03   -0.27609E+00   -0.10422E+01  6200   0.168E+01    0.103E+01
DAV:  12    -0.135810496496E+03    0.64844E-01   -0.56115E+00  5708   0.829E+00    0.652E+00
DAV:  13    -0.135446597384E+03    0.36390E+00   -0.25465E+00  5752   0.994E+00    0.524E+00
DAV:  14    -0.135348087971E+03    0.98509E-01   -0.34759E-01  5712   0.180E+00    0.347E+00
DAV:  15    -0.135358063025E+03   -0.99751E-02   -0.11754E-01  5672   0.275E+00    0.353E+00
DAV:  16    -0.135628036385E+03   -0.26997E+00   -0.52517E-01  5752   0.389E+00    0.643E+00
DAV:  17    -0.135285326110E+03    0.34271E+00   -0.69452E-01  5856   0.324E+00    0.190E+00
DAV:  18    -0.135279079811E+03    0.62463E-02   -0.14680E-01  6296   0.172E+00    0.976E-01
DAV:  19    -0.135279715289E+03   -0.63548E-03   -0.26903E-02  5400   0.794E-01    0.651E-01
DAV:  20    -0.135278394351E+03    0.13209E-02   -0.34966E-03  5712   0.265E-01    0.498E-01
DAV:  21    -0.135276882816E+03    0.15115E-02   -0.25879E-03  5840   0.443E-01    0.308E-01
DAV:  22    -0.135276182407E+03    0.70041E-03   -0.42661E-03  6016   0.280E-01    0.161E-01
DAV:  23    -0.135276412193E+03   -0.22979E-03   -0.18635E-03  5676   0.327E-01    0.181E-01
DAV:  24    -0.135276503543E+03   -0.91350E-04   -0.22579E-04  6272   0.896E-02    0.185E-01
DAV:  25    -0.135276511713E+03   -0.81695E-05   -0.18663E-04  5124   0.795E-02    0.122E-01
DAV:  26    -0.135276742898E+03   -0.23119E-03   -0.64083E-04  5444   0.107E-01    0.432E-02
DAV:  27    -0.135276871949E+03   -0.12905E-03   -0.11406E-04  4952   0.440E-02    0.547E-02
DAV:  28    -0.135277025330E+03   -0.15338E-03   -0.36102E-05  4384   0.400E-02    0.442E-02
DAV:  29    -0.135277237491E+03   -0.21216E-03   -0.65814E-05  4400   0.283E-02    0.250E-02
DAV:  30    -0.135277395955E+03   -0.15846E-03   -0.25939E-05  3372   0.328E-02    0.268E-02
DAV:  31    -0.135277556844E+03   -0.16089E-03   -0.62777E-05  3240   0.520E-02    0.559E-02
DAV:  32    -0.135277564855E+03   -0.80103E-05   -0.19718E-05  3316   0.246E-02
   1 F= -.14893480E+03 E0= -.14888980E+03  d E =-.148935E+03
       N       E                     dE             d eps       ncg     rms          rms(c)
DAV:   1    -0.132433211721E+03    0.28443E+01   -0.12244E+02  6944   0.105E+02    0.879E+00
DAV:   2    -0.136402568358E+03   -0.39694E+01   -0.36184E+01  5932   0.167E+01    0.856E+00
DAV:   3    -0.137973062406E+03   -0.15705E+01   -0.91681E+00  6348   0.167E+01    0.122E+01
DAV:   4    -0.135959366680E+03    0.20137E+01   -0.67745E+00  6236   0.155E+01    0.409E+00
DAV:   5    -0.135898994139E+03    0.60373E-01   -0.84484E-01  6456   0.703E+00    0.267E+00
DAV:   6    -0.135874049977E+03    0.24944E-01   -0.18402E-01  5828   0.368E+00    0.211E+00
DAV:   7    -0.135873137089E+03    0.91289E-03   -0.54195E-02  5704   0.116E+00    0.181E+00
DAV:   8    -0.135873211598E+03   -0.74509E-04   -0.12166E-02  5648   0.782E-01    0.157E+00
DAV:   9    -0.135873064133E+03    0.14747E-03   -0.59166E-03  5556   0.677E-01    0.115E+00
DAV:  10    -0.135873275036E+03   -0.21090E-03   -0.12686E-02  6444   0.956E-01    0.685E-01
DAV:  11    -0.135872717310E+03    0.55773E-03   -0.36069E-03  6892   0.425E-01    0.522E-01
DAV:  12    -0.135872329062E+03    0.38825E-03   -0.85092E-04  5280   0.147E-01    0.442E-01
DAV:  13    -0.135871931514E+03    0.39755E-03   -0.27067E-04  5128   0.702E-02    0.340E-01
DAV:  14    -0.135871558547E+03    0.37297E-03   -0.45939E-04  5536   0.973E-02    0.192E-01
DAV:  15    -0.135871498964E+03    0.59583E-04   -0.17967E-04  5400   0.602E-02    0.126E-01
DAV:  16    -0.135871442271E+03    0.56694E-04   -0.83395E-05  4952   0.661E-02    0.684E-02
DAV:  17    -0.135871445787E+03   -0.35162E-05   -0.43423E-05  4532   0.300E-02
   2 F= -.14950662E+03 E0= -.14946407E+03  d E =-.571828E+00
       N       E                     dE             d eps       ncg     rms          rms(c)
DAV:   1    -0.107650004307E+03    0.28221E+02   -0.13163E+03  5384   0.207E+02    0.323E+01
DAV:   2    -0.164812985160E+03   -0.57163E+02   -0.33917E+02  5648   0.127E+02    0.194E+02
DAV:   3    -0.170019202204E+03   -0.52062E+01   -0.12348E+02  5512   0.208E+01    0.870E+01
DAV:   4    -0.149674237815E+03    0.20345E+02   -0.30848E+01  8200   0.414E+01    0.354E+01
DAV:   5    -0.144038517807E+03    0.56357E+01   -0.27015E+01  6808   0.449E+01    0.325E+01
DAV:   6    -0.137642619027E+03    0.63959E+01   -0.10917E+01  7004   0.217E+01    0.178E+01
DAV:   7    -0.136470145007E+03    0.11725E+01   -0.41887E+00  5704   0.945E+00    0.849E+00
DAV:   8    -0.136355260546E+03    0.11488E+00   -0.83033E-01  5648   0.347E+00    0.775E+00
DAV:   9    -0.136261604880E+03    0.93656E-01   -0.12848E-01  6008   0.171E+00    0.714E+00
DAV:  10    -0.136157438852E+03    0.10417E+00   -0.70451E-02  5732   0.224E+00    0.618E+00
DAV:  11    -0.136028528004E+03    0.12891E+00   -0.12267E-01  7124   0.287E+00    0.421E+00
DAV:  12    -0.135976265009E+03    0.52263E-01   -0.17714E-01  7052   0.284E+00    0.253E+00
DAV:  13    -0.135981971896E+03   -0.57069E-02   -0.82774E-02  5424   0.734E-01    0.251E+00
DAV:  14    -0.135983209957E+03   -0.12381E-02   -0.15695E-02  5600   0.108E+00    0.282E+00
DAV:  15    -0.135980876669E+03    0.23333E-02   -0.84509E-03  5680   0.732E-01    0.249E+00
DAV:  16    -0.135979634794E+03    0.12419E-02   -0.32450E-03  5816   0.484E-01    0.221E+00
DAV:  17    -0.135979913184E+03   -0.27839E-03   -0.14223E-03  5328   0.155E-01    0.220E+00
DAV:  18    -0.135979974953E+03   -0.61770E-04   -0.19468E-04  5040   0.748E-02    0.213E+00
DAV:  19    -0.135979946831E+03    0.28123E-04   -0.92836E-05  4948   0.613E-02    0.202E+00
DAV:  20    -0.135979943064E+03    0.37668E-05   -0.31903E-05  3724   0.556E-02
   3 F= -.14956600E+03 E0= -.14953203E+03  d E =-.631208E+00
       N       E                     dE             d eps       ncg     rms          rms(c)
DAV:   1    -0.110527529676E+03    0.25452E+02   -0.66094E+02  5588   0.135E+02    0.254E+01
DAV:   2    -0.143917131910E+03   -0.33390E+02   -0.28634E+02  5852   0.498E+01    0.369E+01
DAV:   3    -0.145270455029E+03   -0.13533E+01   -0.37792E+01  6748   0.470E+01    0.184E+01
DAV:   4    -0.143085526675E+03    0.21849E+01   -0.23306E+01  6712   0.521E+01    0.208E+01
DAV:   5    -0.136362814118E+03    0.67227E+01   -0.20634E+01  6460   0.286E+01    0.883E+00
DAV:   6    -0.136389439370E+03   -0.26625E-01   -0.22388E+00  6084   0.111E+01    0.685E+00
DAV:   7    -0.136456664175E+03   -0.67225E-01   -0.68587E-01  5552   0.301E+00    0.596E+00
DAV:   8    -0.136384540186E+03    0.72124E-01   -0.22398E-01  5588   0.384E+00    0.481E+00
DAV:   9    -0.136369910049E+03    0.14630E-01   -0.75967E-02  6488   0.160E+00    0.400E+00
DAV:  10    -0.136354250645E+03    0.15659E-01   -0.91734E-02  5544   0.216E+00    0.269E+00
DAV:  11    -0.136317765545E+03    0.36485E-01   -0.77939E-02  5820   0.180E+00    0.157E+00
DAV:  12    -0.136333645312E+03   -0.15880E-01   -0.69377E-02  6360   0.775E-01    0.187E+00
DAV:  13    -0.136324978193E+03    0.86671E-02   -0.78349E-03  5880   0.491E-01    0.155E+00
DAV:  14    -0.136314804764E+03    0.10173E-01   -0.65425E-03  6292   0.529E-01    0.105E+00
DAV:  15    -0.136308074022E+03    0.67307E-02   -0.28112E-02  6028   0.103E+00    0.327E-01
DAV:  16    -0.136308834493E+03   -0.76047E-03   -0.81106E-03  5408   0.298E-01    0.279E-01
DAV:  17    -0.136308690845E+03    0.14365E-03   -0.56482E-04  5400   0.121E-01    0.252E-01
DAV:  18    -0.136308780935E+03   -0.90090E-04   -0.17021E-04  4952   0.963E-02    0.222E-01
DAV:  19    -0.136308692482E+03    0.88453E-04   -0.28522E-04  5496   0.178E-01    0.157E-01
DAV:  20    -0.136308441151E+03    0.25133E-03   -0.34085E-04  5312   0.107E-01    0.765E-02
DAV:  21    -0.136308473496E+03   -0.32345E-04   -0.40784E-05  4384   0.225E-02    0.783E-02
DAV:  22    -0.136308475797E+03   -0.23015E-05   -0.79264E-06  3152   0.164E-02
   4 F= -.14993165E+03 E0= -.14989106E+03  d E =-.996857E+00
       N       E                     dE             d eps       ncg     rms          rms(c)
DAV:   1    -0.132137215475E+03    0.41713E+01   -0.15478E+02  6968   0.972E+01    0.120E+01
DAV:   2    -0.137412976012E+03   -0.52758E+01   -0.48726E+01  6800   0.273E+01    0.153E+01
DAV:   3    -0.136924832913E+03    0.48814E+00   -0.76247E+00  6120   0.147E+01    0.500E+00
DAV:   4    -0.139228563034E+03   -0.23037E+01   -0.10514E+01  6176   0.259E+01    0.121E+01
DAV:   5    -0.136724383647E+03    0.25042E+01   -0.39078E+00  6584   0.153E+01    0.294E+00
DAV:   6    -0.136739706071E+03   -0.15322E-01   -0.29088E-01  6032   0.303E+00    0.253E+00
DAV:   7    -0.136740359786E+03   -0.65371E-03   -0.76666E-02  5512   0.906E-01    0.220E+00
DAV:   8    -0.136742183731E+03   -0.18239E-02   -0.20210E-02  5516   0.989E-01    0.192E+00
DAV:   9    -0.136739110251E+03    0.30735E-02   -0.13485E-02  5680   0.130E+00    0.133E+00
DAV:  10    -0.136734181404E+03    0.49288E-02   -0.10401E-02  6452   0.980E-01    0.715E-01
DAV:  11    -0.136733567309E+03    0.61410E-03   -0.43663E-03  6948   0.445E-01    0.533E-01
DAV:  12    -0.136733329305E+03    0.23800E-03   -0.11454E-03  5560   0.210E-01    0.414E-01
DAV:  13    -0.136733327642E+03    0.16638E-05   -0.61491E-04  5428   0.263E-01    0.270E-01
DAV:  14    -0.136733142678E+03    0.18496E-03   -0.82933E-04  5688   0.225E-01    0.129E-01
DAV:  15    -0.136733104932E+03    0.37746E-04   -0.24711E-04  5504   0.852E-02    0.870E-02
DAV:  16    -0.136733091981E+03    0.12951E-04   -0.74701E-05  4968   0.450E-02    0.598E-02
DAV:  17    -0.136733092053E+03   -0.72323E-07   -0.27190E-05  4184   0.350E-02
   5 F= -.15033757E+03 E0= -.15029977E+03  d E =-.140278E+01
       N       E                     dE             d eps       ncg     rms          rms(c)
DAV:   1    -0.136687140015E+03    0.45952E-01   -0.14962E+00  6360   0.887E+00    0.744E-01
DAV:   2    -0.136737690229E+03   -0.50550E-01   -0.50303E-01  5376   0.149E+00    0.736E-01
DAV:   3    -0.136744021194E+03   -0.63310E-02   -0.75707E-02  5524   0.155E+00    0.763E-01
DAV:   4    -0.136736158516E+03    0.78627E-02   -0.33572E-02  5684   0.135E+00    0.292E-01
DAV:   5    -0.136736613134E+03   -0.45462E-03   -0.50634E-03  6584   0.633E-01    0.341E-01
DAV:   6    -0.136736230683E+03    0.38245E-03   -0.14868E-03  5868   0.378E-01    0.251E-01
DAV:   7    -0.136736013663E+03    0.21702E-03   -0.71476E-04  5148   0.167E-01    0.114E-01
DAV:   8    -0.136736020558E+03   -0.68958E-05   -0.20361E-04  5288   0.767E-02    0.506E-02
DAV:   9    -0.136736013310E+03    0.72479E-05   -0.69515E-05  4892   0.755E-02
   6 F= -.15033864E+03 E0= -.15030113E+03  d E =-.140385E+01
       N       E                     dE             d eps       ncg     rms          rms(c)
DAV:   1    -0.136727761598E+03    0.82590E-02   -0.25825E-01  6320   0.363E+00    0.288E-01
DAV:   2    -0.136736449228E+03   -0.86876E-02   -0.85897E-02  5384   0.584E-01    0.284E-01
DAV:   3    -0.136737651613E+03   -0.12024E-02   -0.13270E-02  5480   0.636E-01    0.332E-01
DAV:   4    -0.136736105662E+03    0.15460E-02   -0.55116E-03  5176   0.522E-01    0.122E-01
DAV:   5    -0.136736197677E+03   -0.92015E-04   -0.46988E-04  5416   0.204E-01    0.133E-01
DAV:   6    -0.136736164242E+03    0.33435E-04   -0.24953E-04  5048   0.157E-01    0.108E-01
DAV:   7    -0.136736126361E+03    0.37881E-04   -0.16366E-04  4712   0.968E-02    0.315E-02
DAV:   8    -0.136736131865E+03   -0.55046E-05   -0.39248E-05  4192   0.279E-02
   7 F= -.15033953E+03 E0= -.15030186E+03  d E =-.140473E+01
       N       E                     dE             d eps       ncg     rms          rms(c)
DAV:   1    -0.135665050138E+03    0.10711E+01   -0.25154E+01  7000   0.591E+01    0.368E+00
DAV:   2    -0.136763491501E+03   -0.10984E+01   -0.11196E+01  5400   0.703E+00    0.179E+00
DAV:   3    -0.136831803728E+03   -0.68312E-01   -0.63974E-01  7688   0.345E+00    0.199E+00
DAV:   4    -0.136813653190E+03    0.18151E-01   -0.30983E-01  6008   0.381E+00    0.157E+00
DAV:   5    -0.136794485969E+03    0.19167E-01   -0.12227E-01  5932   0.284E+00    0.111E+00
DAV:   6    -0.136791815923E+03    0.26700E-02   -0.12161E-02  6376   0.828E-01    0.894E-01
DAV:   7    -0.136791350483E+03    0.46544E-03   -0.34330E-03  6200   0.344E-01    0.692E-01
DAV:   8    -0.136791381238E+03   -0.30755E-04   -0.19289E-03  5388   0.391E-01    0.261E-01
DAV:   9    -0.136791426929E+03   -0.45691E-04   -0.14620E-03  6336   0.220E-01    0.165E-01
DAV:  10    -0.136791416193E+03    0.10736E-04   -0.30368E-04  5864   0.115E-01    0.142E-01
DAV:  11    -0.136791406082E+03    0.10110E-04   -0.67675E-05  4796   0.628E-02    0.971E-02
DAV:  12    -0.136791400674E+03    0.54084E-05   -0.68124E-05  4520   0.859E-02
   8 F= -.15039079E+03 E0= -.15035386E+03  d E =-.512579E-01
       N       E                     dE             d eps       ncg     rms          rms(c)
DAV:   1    -0.132902234591E+03    0.38892E+01   -0.85169E+01  7012   0.109E+02    0.849E+00
DAV:   2    -0.136748945904E+03   -0.38467E+01   -0.39141E+01  5356   0.144E+01    0.474E+00
DAV:   3    -0.136909427841E+03   -0.16048E+00   -0.23034E+00  7148   0.101E+01    0.371E+00
DAV:   4    -0.137000904635E+03   -0.91477E-01   -0.13851E+00  5912   0.103E+01    0.376E+00
DAV:   5    -0.136838063079E+03    0.16284E+00   -0.43233E-01  6724   0.515E+00    0.230E+00
DAV:   6    -0.136840141813E+03   -0.20787E-02   -0.60310E-02  5960   0.858E-01    0.199E+00
DAV:   7    -0.136838993824E+03    0.11480E-02   -0.82036E-03  6032   0.552E-01    0.175E+00
DAV:   8    -0.136837670980E+03    0.13228E-02   -0.33518E-03  5852   0.573E-01    0.996E-01
DAV:   9    -0.136836589149E+03    0.10818E-02   -0.60493E-03  6924   0.755E-01    0.363E-01
DAV:  10    -0.136836454009E+03    0.13514E-03   -0.29678E-03  6824   0.289E-01    0.256E-01
DAV:  11    -0.136836449583E+03    0.44252E-05   -0.91784E-04  5376   0.156E-01    0.211E-01
DAV:  12    -0.136836480815E+03   -0.31232E-04   -0.19789E-04  5272   0.123E-01    0.155E-01
DAV:  13    -0.136836501232E+03   -0.20416E-04   -0.11605E-04  4752   0.579E-02    0.843E-02
DAV:  14    -0.136836492648E+03    0.85838E-05   -0.84455E-05  4696   0.789E-02
   9 F= -.15042894E+03 E0= -.15039342E+03  d E =-.894067E-01
       N       E                     dE             d eps       ncg     rms          rms(c)
DAV:   1    -0.136650421085E+03    0.18608E+00   -0.49122E+00  7012   0.221E+01    0.147E+00
DAV:   2    -0.136851938669E+03   -0.20152E+00   -0.20530E+00  5328   0.253E+00    0.738E-01
DAV:   3    -0.136870699380E+03   -0.18761E-01   -0.13966E-01  6840   0.193E+00    0.954E-01
DAV:   4    -0.136861760419E+03    0.89390E-02   -0.82072E-02  6120   0.212E+00    0.603E-01
DAV:   5    -0.136858414480E+03    0.33459E-02   -0.11527E-02  6556   0.916E-01    0.401E-01
DAV:   6    -0.136858333495E+03    0.80985E-04   -0.18613E-03  5892   0.203E-01    0.322E-01
DAV:   7    -0.136858308496E+03    0.25000E-04   -0.47423E-04  5496   0.143E-01    0.231E-01
DAV:   8    -0.136858328339E+03   -0.19843E-04   -0.33899E-04  5424   0.146E-01    0.943E-02
DAV:   9    -0.136858325746E+03    0.25928E-05   -0.26220E-04  6104   0.129E-01    0.563E-02
DAV:  10    -0.136858332621E+03   -0.68751E-05   -0.73828E-05  4660   0.322E-02
  10 F= -.15045089E+03 E0= -.15041556E+03  d E =-.219513E-01
       N       E                     dE             d eps       ncg     rms          rms(c)
DAV:   1    -0.135018403211E+03    0.18399E+01   -0.44680E+01  7144   0.660E+01    0.601E+00
DAV:   2    -0.136841647899E+03   -0.18232E+01   -0.18532E+01  5392   0.790E+00    0.248E+00
DAV:   3    -0.136930497601E+03   -0.88850E-01   -0.95986E-01  7532   0.319E+00    0.211E+00
DAV:   4    -0.136944113278E+03   -0.13616E-01   -0.26035E-01  5772   0.369E+00    0.219E+00
DAV:   5    -0.136909730374E+03    0.34383E-01   -0.11032E-01  5704   0.253E+00    0.157E+00
DAV:   6    -0.136909164019E+03    0.56635E-03   -0.74837E-03  6200   0.448E-01    0.131E+00
DAV:   7    -0.136909165747E+03   -0.17280E-05   -0.38322E-03  6020   0.423E-01    0.942E-01
DAV:   8    -0.136908575266E+03    0.59048E-03   -0.37156E-03  5600   0.587E-01    0.347E-01
DAV:   9    -0.136908586968E+03   -0.11702E-04   -0.24800E-03  7356   0.352E-01    0.220E-01
DAV:  10    -0.136908537571E+03    0.49397E-04   -0.55742E-04  5832   0.127E-01    0.170E-01
DAV:  11    -0.136908509689E+03    0.27881E-04   -0.26421E-04  5040   0.154E-01    0.899E-02
DAV:  12    -0.136908508367E+03    0.13222E-05   -0.12335E-04  4808   0.726E-02    0.398E-02
DAV:  13    -0.136908514514E+03   -0.61469E-05   -0.28411E-05  4008   0.350E-02
  11 F= -.15050157E+03 E0= -.15046674E+03  d E =-.726321E-01
       N       E                     dE             d eps       ncg     rms          rms(c)
DAV:   1    -0.129604310563E+03    0.73042E+01   -0.19081E+02  7696   0.130E+02    0.131E+01
DAV:   2    -0.136973877506E+03   -0.73696E+01   -0.72999E+01  5648   0.206E+01    0.875E+00
DAV:   3    -0.137430645563E+03   -0.45677E+00   -0.62453E+00  6244   0.184E+01    0.772E+00
DAV:   4    -0.137685501114E+03   -0.25486E+00   -0.73751E+00  5768   0.215E+01    0.647E+00
DAV:   5    -0.136918155146E+03    0.76735E+00   -0.13796E+00  6728   0.110E+01    0.338E+00
DAV:   6    -0.136928729032E+03   -0.10574E-01   -0.21777E-01  5940   0.173E+00    0.297E+00
DAV:   7    -0.136929714484E+03   -0.98545E-03   -0.32406E-02  5548   0.777E-01    0.267E+00
DAV:   8    -0.136929368801E+03    0.34568E-03   -0.47798E-03  5536   0.519E-01    0.228E+00
DAV:   9    -0.136929044398E+03    0.32440E-03   -0.12923E-02  6456   0.818E-01    0.113E+00
DAV:  10    -0.136927068173E+03    0.19762E-02   -0.16333E-02  7652   0.749E-01    0.479E-01
DAV:  11    -0.136927029240E+03    0.38933E-04   -0.34101E-03  6340   0.311E-01    0.429E-01
DAV:  12    -0.136926997489E+03    0.31750E-04   -0.99399E-04  5472   0.174E-01    0.383E-01
DAV:  13    -0.136926866853E+03    0.13064E-03   -0.33531E-04  5320   0.157E-01    0.324E-01
DAV:  14    -0.136926869859E+03   -0.30055E-05   -0.25244E-04  6044   0.899E-02    0.225E-01
DAV:  15    -0.136926859804E+03    0.10054E-04   -0.26630E-04  4940   0.134E-01    0.158E-01
DAV:  16    -0.136926854182E+03    0.56222E-05   -0.45793E-05  4588   0.369E-02
  12 F= -.15052179E+03 E0= -.15048815E+03  d E =-.928499E-01
       N       E                     dE             d eps       ncg     rms          rms(c)
DAV:   1    -0.135948244029E+03    0.97862E+00   -0.23424E+01  7276   0.501E+01    0.378E+00
DAV:   2    -0.136933362599E+03   -0.98512E+00   -0.98925E+00  5472   0.723E+00    0.300E+00
DAV:   3    -0.137109830912E+03   -0.17647E+00   -0.14861E+00  5840   0.827E+00    0.332E+00
DAV:   4    -0.137002671100E+03    0.10716E+00   -0.13872E+00  6208   0.866E+00    0.208E+00
DAV:   5    -0.136934243092E+03    0.68428E-01   -0.16181E-01  7520   0.366E+00    0.105E+00
DAV:   6    -0.136934522159E+03   -0.27907E-03   -0.24484E-02  5788   0.649E-01    0.862E-01
DAV:   7    -0.136934632635E+03   -0.11048E-03   -0.41156E-03  5452   0.274E-01    0.755E-01
DAV:   8    -0.136934647912E+03   -0.15277E-04   -0.64573E-04  5656   0.197E-01    0.555E-01
DAV:   9    -0.136934616179E+03    0.31733E-04   -0.12029E-03  6188   0.247E-01    0.233E-01
DAV:  10    -0.136934586210E+03    0.29969E-04   -0.92549E-04  5792   0.192E-01    0.137E-01
DAV:  11    -0.136934595452E+03   -0.92424E-05   -0.21175E-04  5244   0.565E-02    0.113E-01
DAV:  12    -0.136934607686E+03   -0.12234E-04   -0.29359E-05  3868   0.431E-02    0.906E-02
DAV:  13    -0.136934613772E+03   -0.60859E-05   -0.18083E-05  3596   0.461E-02
  13 F= -.15052872E+03 E0= -.15049462E+03  d E =-.997813E-01
       N       E                     dE             d eps       ncg     rms          rms(c)
DAV:   1    -0.136440323637E+03    0.49428E+00   -0.14979E+01  6632   0.410E+01    0.243E+00
DAV:   2    -0.136980044987E+03   -0.53972E+00   -0.54768E+00  5368   0.492E+00    0.120E+00
DAV:   3    -0.137061817478E+03   -0.81772E-01   -0.51467E-01  8064   0.425E+00    0.203E+00
DAV:   4    -0.136993523330E+03    0.68294E-01   -0.25357E-01  6152   0.411E+00    0.861E-01
DAV:   5    -0.136991787697E+03    0.17356E-02   -0.18190E-02  7004   0.115E+00    0.681E-01
DAV:   6    -0.136991617602E+03    0.17009E-03   -0.63195E-03  5764   0.467E-01    0.564E-01
DAV:   7    -0.136991505598E+03    0.11200E-03   -0.21342E-03  5960   0.336E-01    0.351E-01
DAV:   8    -0.136991670210E+03   -0.16461E-03   -0.12432E-03  6456   0.272E-01    0.158E-01
DAV:   9    -0.136991619368E+03    0.50842E-04   -0.11309E-03  6680   0.250E-01    0.667E-02
DAV:  10    -0.136991635428E+03   -0.16060E-04   -0.19663E-04  5408   0.631E-02    0.568E-02
DAV:  11    -0.136991638172E+03   -0.27438E-05   -0.38209E-05  4376   0.486E-02
  14 F= -.15058725E+03 E0= -.15055359E+03  d E =-.585307E-01
       N       E                     dE             d eps       ncg     rms          rms(c)
DAV:   1    -0.131997717182E+03    0.49939E+01   -0.13369E+02  6872   0.122E+02    0.107E+01
DAV:   2    -0.137027916909E+03   -0.50302E+01   -0.50794E+01  5488   0.169E+01    0.602E+00
DAV:   3    -0.137219774250E+03   -0.19186E+00   -0.31153E+00  6908   0.112E+01    0.463E+00
DAV:   4    -0.137367328462E+03   -0.14755E+00   -0.20099E+00  5912   0.120E+01    0.443E+00
DAV:   5    -0.137132829636E+03    0.23450E+00   -0.67073E-01  6592   0.710E+00    0.281E+00
DAV:   6    -0.137130318741E+03    0.25109E-02   -0.77004E-02  6224   0.135E+00    0.228E+00
DAV:   7    -0.137132491907E+03   -0.21732E-02   -0.24916E-02  5880   0.832E-01    0.187E+00
DAV:   8    -0.137129703524E+03    0.27884E-02   -0.11718E-02  5592   0.732E-01    0.106E+00
DAV:   9    -0.137130054088E+03   -0.35056E-03   -0.63683E-03  7768   0.716E-01    0.484E-01
DAV:  10    -0.137129919317E+03    0.13477E-03   -0.26845E-03  6804   0.364E-01    0.353E-01
DAV:  11    -0.137129810597E+03    0.10872E-03   -0.78123E-04  5392   0.215E-01    0.262E-01
DAV:  12    -0.137129831647E+03   -0.21050E-04   -0.31178E-04  5608   0.144E-01    0.154E-01
DAV:  13    -0.137129834545E+03   -0.28978E-05   -0.19849E-04  4908   0.990E-02    0.930E-02
DAV:  14    -0.137129835568E+03   -0.10228E-05   -0.84767E-05  4824   0.802E-02
  15 F= -.15073054E+03 E0= -.15069815E+03  d E =-.201821E+00
       N       E                     dE             d eps       ncg     rms          rms(c)
DAV:   1    -0.118217860552E+03    0.18912E+02   -0.56870E+02  7260   0.236E+02    0.165E+01
DAV:   2    -0.138282543161E+03   -0.20065E+02   -0.19683E+02  5624   0.434E+01    0.204E+01
DAV:   3    -0.138506715484E+03   -0.22417E+00   -0.18090E+01  6364   0.307E+01    0.911E+00
DAV:   4    -0.141462673818E+03   -0.29560E+01   -0.21440E+01  6092   0.429E+01    0.136E+01
DAV:   5    -0.137338054388E+03    0.41246E+01   -0.53325E+00  6996   0.216E+01    0.450E+00
DAV:   6    -0.137418139961E+03   -0.80086E-01   -0.11488E+00  5600   0.404E+00    0.391E+00
DAV:   7    -0.137417709957E+03    0.43000E-03   -0.10864E-01  6120   0.137E+00    0.351E+00
DAV:   8    -0.137412454382E+03    0.52556E-02   -0.36242E-02  6104   0.102E+00    0.271E+00
DAV:   9    -0.137404950433E+03    0.75039E-02   -0.71780E-02  5496   0.193E+00    0.151E+00
DAV:  10    -0.137403025505E+03    0.19249E-02   -0.21431E-02  6820   0.130E+00    0.103E+00
DAV:  11    -0.137399465057E+03    0.35604E-02   -0.11835E-02  5852   0.101E+00    0.665E-01
DAV:  12    -0.137399515802E+03   -0.50745E-04   -0.42519E-03  6112   0.433E-01    0.573E-01
DAV:  13    -0.137399373099E+03    0.14270E-03   -0.24996E-03  5568   0.443E-01    0.359E-01
DAV:  14    -0.137399358608E+03    0.14491E-04   -0.16416E-03  5548   0.285E-01    0.196E-01
DAV:  15    -0.137399257105E+03    0.10150E-03   -0.46373E-04  5440   0.122E-01    0.149E-01
DAV:  16    -0.137399211986E+03    0.45119E-04   -0.17974E-04  5248   0.106E-01    0.983E-02
DAV:  17    -0.137399225462E+03   -0.13476E-04   -0.97986E-05  5060   0.839E-02    0.542E-02
DAV:  18    -0.137399240959E+03   -0.15497E-04   -0.49689E-05  4732   0.539E-02    0.381E-02
DAV:  19    -0.137399250890E+03   -0.99304E-05   -0.71782E-06  3140   0.157E-02
  16 F= -.15098269E+03 E0= -.15095107E+03  d E =-.453968E+00
       N       E                     dE             d eps       ncg     rms          rms(c)
DAV:   1    -0.493744815750E+02    0.88025E+02   -0.22587E+03  5748   0.425E+02    0.727E+01
DAV:   2    -0.229455276704E+03   -0.18008E+03   -0.84784E+02  6020   0.207E+02    0.125E+03
DAV:   3    -0.270674029234E+03   -0.41219E+02   -0.46210E+02  5852   0.398E+01    0.148E+03
DAV:   4    -0.266820151980E+03    0.38539E+01   -0.13494E+01  6808   0.635E+00    0.148E+03
DAV:   5    -0.332502454618E+03   -0.65682E+02   -0.17248E+01  6316   0.266E+01    0.149E+03
DAV:   6    -0.229754210066E+03    0.10275E+03   -0.49501E+01  7036   0.337E+01    0.148E+03
DAV:   7    -0.226824780558E+03    0.29294E+01   -0.11914E+01  6944   0.220E+01    0.148E+03
DAV:   8    -0.221551903885E+03    0.52729E+01   -0.14747E+01  5856   0.258E+01    0.147E+03
DAV:   9    -0.209672841949E+03    0.11879E+02   -0.10143E+02  5996   0.267E+01    0.973E+01
DAV:  10    -0.159532027341E+03    0.50141E+02   -0.12111E+02  6316   0.861E+01    0.626E+01
DAV:  11    -0.146763974015E+03    0.12768E+02   -0.50493E+01  7020   0.558E+01    0.611E+01
DAV:  12    -0.141856324333E+03    0.49076E+01   -0.16488E+01  6408   0.318E+01    0.609E+01
DAV:  13    -0.140898869513E+03    0.95745E+00   -0.88739E+00  5588   0.166E+01    0.614E+01
DAV:  14    -0.140386617707E+03    0.51225E+00   -0.16947E+00  5752   0.813E+00    0.583E+01
DAV:  15    -0.139748093886E+03    0.63852E+00   -0.68180E-01  6744   0.737E+00    0.548E+01
DAV:  16    -0.139109032444E+03    0.63906E+00   -0.76999E-01  6960   0.691E+00    0.499E+01
DAV:  17    -0.138721227589E+03    0.38780E+00   -0.80666E-01  7200   0.797E+00    0.434E+01
DAV:  18    -0.138755225900E+03   -0.33998E-01   -0.68295E-01  6936   0.561E+00    0.378E+01
DAV:  19    -0.138594974100E+03    0.16025E+00   -0.62127E-01  5648   0.495E+00    0.308E+01
DAV:  20    -0.138521724302E+03    0.73250E-01   -0.11300E-01  6200   0.165E+00    0.278E+01
DAV:  21    -0.138478845996E+03    0.42878E-01   -0.45239E-02  6592   0.171E+00    0.240E+01
DAV:  22    -0.138448749829E+03    0.30096E-01   -0.14054E-01  6952   0.347E+00    0.173E+01
DAV:  23    -0.138429081837E+03    0.19668E-01   -0.19777E-01  6872   0.301E+00    0.170E+01
DAV:  24    -0.138355840769E+03    0.73241E-01   -0.74097E-02  7028   0.213E+00    0.178E+01
DAV:  25    -0.138291634385E+03    0.64206E-01   -0.57916E-02  6876   0.182E+00    0.186E+01
DAV:  26    -0.138214279939E+03    0.77354E-01   -0.44110E-02  6536   0.158E+00    0.164E+01
DAV:  27    -0.138128172939E+03    0.86107E-01   -0.51328E-02  6568   0.244E+00    0.123E+01
DAV:  28    -0.138104425569E+03    0.23747E-01   -0.52288E-02  7008   0.161E+00    0.953E+00
DAV:  29    -0.138093432989E+03    0.10993E-01   -0.21077E-02  6704   0.954E-01    0.823E+00
DAV:  30    -0.138087839004E+03    0.55940E-02   -0.92514E-03  6928   0.717E-01    0.734E+00
DAV:  31    -0.138083776974E+03    0.40620E-02   -0.14557E-02  6476   0.120E+00    0.495E+00
DAV:  32    -0.138084432982E+03   -0.65601E-03   -0.11827E-02  6384   0.508E-01    0.436E+00
DAV:  33    -0.138084680566E+03   -0.24758E-03   -0.22455E-03  5752   0.283E-01    0.420E+00
DAV:  34    -0.138082637024E+03    0.20435E-02   -0.93767E-04  5580   0.347E-01    0.389E+00
DAV:  35    -0.138081119291E+03    0.15177E-02   -0.10873E-03  6844   0.299E-01    0.329E+00
DAV:  36    -0.138080627637E+03    0.49165E-03   -0.15273E-03  6204   0.389E-01    0.250E+00
DAV:  37    -0.138080473418E+03    0.15422E-03   -0.13103E-03  6120   0.217E-01    0.214E+00
DAV:  38    -0.138080572757E+03   -0.99340E-04   -0.39729E-04  5664   0.875E-02    0.195E+00
DAV:  39    -0.138080611106E+03   -0.38349E-04   -0.87597E-05  4964   0.305E-02    0.191E+00
DAV:  40    -0.138080709454E+03   -0.98348E-04   -0.16489E-05  3792   0.417E-02    0.181E+00
DAV:  41    -0.138081240772E+03   -0.53132E-03   -0.51030E-04  6208   0.238E-01    0.102E+00
DAV:  42    -0.138081540365E+03   -0.29959E-03   -0.31770E-04  6420   0.932E-02    0.797E-01
DAV:  43    -0.138081592841E+03   -0.52476E-04   -0.37648E-05  4200   0.449E-02    0.753E-01
DAV:  44    -0.138081609884E+03   -0.17043E-04   -0.19144E-05  3476   0.161E-02    0.739E-01
DAV:  45    -0.138081608087E+03    0.17970E-05   -0.58790E-06  3104   0.308E-02
  17 F= -.15165809E+03 E0= -.15162438E+03  d E =-.112938E+01
       N       E                     dE             d eps       ncg     rms          rms(c)
DAV:   1    -0.134393414016E+03    0.36882E+01   -0.95655E+01  6680   0.103E+02    0.947E+00
DAV:   2    -0.138128859855E+03   -0.37354E+01   -0.37327E+01  5860   0.171E+01    0.593E+00
DAV:   3    -0.138787107685E+03   -0.65825E+00   -0.43918E+00  6048   0.204E+01    0.656E+00
DAV:   4    -0.138227454253E+03    0.55965E+00   -0.41191E+00  6020   0.191E+01    0.359E+00
DAV:   5    -0.138041925773E+03    0.18553E+00   -0.53397E-01  7808   0.721E+00    0.226E+00
DAV:   6    -0.138046968994E+03   -0.50432E-02   -0.13595E-01  5540   0.164E+00    0.178E+00
DAV:   7    -0.138047304686E+03   -0.33569E-03   -0.19480E-02  5740   0.720E-01    0.153E+00
DAV:   8    -0.138046570074E+03    0.73461E-03   -0.44116E-03  5696   0.633E-01    0.110E+00
DAV:   9    -0.138046156712E+03    0.41336E-03   -0.39727E-03  6348   0.652E-01    0.451E-01
DAV:  10    -0.138046104818E+03    0.51894E-04   -0.24223E-03  7256   0.397E-01    0.305E-01
DAV:  11    -0.138045955391E+03    0.14943E-03   -0.61735E-04  5456   0.200E-01    0.220E-01
DAV:  12    -0.138045867172E+03    0.88219E-04   -0.27654E-04  6376   0.161E-01    0.155E-01
DAV:  13    -0.138045899666E+03   -0.32494E-04   -0.28967E-04  5772   0.893E-02    0.860E-02
DAV:  14    -0.138045901738E+03   -0.20718E-05   -0.59194E-05  4736   0.537E-02
  18 F= -.15161455E+03 E0= -.15158112E+03  d E =-.108583E+01
       N       E                     dE             d eps       ncg     rms          rms(c)
DAV:   1    -0.136099464146E+03    0.19464E+01   -0.53284E+01  6596   0.769E+01    0.567E+00
DAV:   2    -0.138067268520E+03   -0.19678E+01   -0.20051E+01  5640   0.974E+00    0.246E+00
DAV:   3    -0.138168329355E+03   -0.10106E+00   -0.76421E-01  7972   0.639E+00    0.267E+00
DAV:   4    -0.138108470235E+03    0.59859E-01   -0.36288E-01  5948   0.654E+00    0.189E+00
DAV:   5    -0.138089586405E+03    0.18884E-01   -0.77922E-02  6060   0.295E+00    0.154E+00
DAV:   6    -0.138088968053E+03    0.61835E-03   -0.20107E-02  5960   0.763E-01    0.122E+00
DAV:   7    -0.138087615092E+03    0.13530E-02   -0.52516E-03  6132   0.669E-01    0.642E-01
DAV:   8    -0.138087777772E+03   -0.16268E-03   -0.38389E-03  7024   0.494E-01    0.277E-01
DAV:   9    -0.138087696825E+03    0.80947E-04   -0.23697E-03  5692   0.399E-01    0.196E-01
DAV:  10    -0.138087695881E+03    0.94468E-06   -0.35341E-04  5596   0.971E-02    0.158E-01
DAV:  11    -0.138087695429E+03    0.45152E-06   -0.12118E-04  5112   0.904E-02    0.106E-01
DAV:  12    -0.138087733846E+03   -0.38417E-04   -0.10258E-04  4780   0.111E-01    0.600E-02
DAV:  13    -0.138087716568E+03    0.17278E-04   -0.58030E-05  4172   0.679E-02    0.317E-02
DAV:  14    -0.138087718171E+03   -0.16033E-05   -0.16394E-05  3244   0.283E-02
  19 F= -.15166183E+03 E0= -.15162816E+03  d E =-.113311E+01
       N       E                     dE             d eps       ncg     rms          rms(c)
DAV:   1    -0.138078150555E+03    0.95660E-02   -0.74300E-01  6420   0.876E+00    0.442E-01
DAV:   2    -0.138101453645E+03   -0.23303E-01   -0.23666E-01  5452   0.108E+00    0.249E-01
DAV:   3    -0.138104799166E+03   -0.33455E-02   -0.18772E-02  5584   0.121E+00    0.392E-01
DAV:   4    -0.138101784669E+03    0.30145E-02   -0.78541E-03  5844   0.971E-01    0.150E-01
DAV:   5    -0.138101803043E+03   -0.18374E-04   -0.56757E-04  7860   0.203E-01    0.125E-01
DAV:   6    -0.138101805614E+03   -0.25714E-05   -0.20437E-04  5240   0.109E-01    0.911E-02
DAV:   7    -0.138101811204E+03   -0.55901E-05   -0.79214E-05  5068   0.788E-02
  20 F= -.15167666E+03 E0= -.15164293E+03  d E =-.148329E-01
       N       E                     dE             d eps       ncg     rms          rms(c)
DAV:   1    -0.137918905410E+03    0.18290E+00   -0.66579E+00  6368   0.263E+01    0.142E+00
DAV:   2    -0.138132010071E+03   -0.21310E+00   -0.21689E+00  5604   0.318E+00    0.681E-01
DAV:   3    -0.138153452039E+03   -0.21442E-01   -0.13295E-01  7800   0.286E+00    0.100E+00
DAV:   4    -0.138136812225E+03    0.16640E-01   -0.49110E-02  5952   0.245E+00    0.485E-01
DAV:   5    -0.138136516127E+03    0.29610E-03   -0.46899E-03  6484   0.651E-01    0.402E-01
DAV:   6    -0.138136468908E+03    0.47219E-04   -0.19224E-03  5728   0.368E-01    0.305E-01
DAV:   7    -0.138136356117E+03    0.11279E-03   -0.91591E-04  5704   0.280E-01    0.987E-02
DAV:   8    -0.138136405881E+03   -0.49764E-04   -0.51383E-04  6324   0.134E-01    0.753E-02
DAV:   9    -0.138136402243E+03    0.36382E-05   -0.16560E-04  5232   0.785E-02    0.542E-02
DAV:  10    -0.138136396686E+03    0.55563E-05   -0.31299E-05  3168   0.467E-02
  21 F= -.15171359E+03 E0= -.15167971E+03  d E =-.517628E-01
       N       E                     dE             d eps       ncg     rms          rms(c)
DAV:   1    -0.137268577542E+03    0.86782E+00   -0.26482E+01  6392   0.527E+01    0.328E+00
DAV:   2    -0.138143590269E+03   -0.87501E+00   -0.89121E+00  5580   0.655E+00    0.142E+00
DAV:   3    -0.138238198283E+03   -0.94608E-01   -0.57743E-01  8292   0.590E+00    0.213E+00
DAV:   4    -0.138165480205E+03    0.72718E-01   -0.19756E-01  5812   0.506E+00    0.108E+00
DAV:   5    -0.138163919554E+03    0.15607E-02   -0.21916E-02  6444   0.139E+00    0.917E-01
DAV:   6    -0.138163933121E+03   -0.13567E-04   -0.87011E-03  5624   0.661E-01    0.730E-01
DAV:   7    -0.138163015067E+03    0.91805E-03   -0.43638E-03  5700   0.608E-01    0.211E-01
DAV:   8    -0.138163145649E+03   -0.13058E-03   -0.18505E-03  7448   0.291E-01    0.184E-01
DAV:   9    -0.138163127569E+03    0.18080E-04   -0.97149E-04  5372   0.192E-01    0.132E-01
DAV:  10    -0.138163071827E+03    0.55741E-04   -0.19338E-04  4884   0.115E-01    0.720E-02
DAV:  11    -0.138163091387E+03   -0.19559E-04   -0.83376E-05  4848   0.554E-02    0.467E-02
DAV:  12    -0.138163103877E+03   -0.12490E-04   -0.44000E-05  4916   0.577E-02    0.296E-02
DAV:  13    -0.138163104719E+03   -0.84261E-06   -0.71404E-06  3000   0.180E-02
  22 F= -.15174527E+03 E0= -.15171095E+03  d E =-.834455E-01
       N       E                     dE             d eps       ncg     rms          rms(c)
DAV:   1    -0.138205664782E+03   -0.42561E-01   -0.13942E-01  6376   0.378E+00    0.184E-01
DAV:   2    -0.138209682154E+03   -0.40174E-02   -0.40565E-02  5452   0.512E-01    0.138E-01
DAV:   3    -0.138210472753E+03   -0.79060E-03   -0.49906E-03  5636   0.688E-01    0.204E-01
DAV:   4    -0.138209598856E+03    0.87390E-03   -0.20087E-03  5632   0.515E-01    0.696E-02
DAV:   5    -0.138209620810E+03   -0.21954E-04   -0.13183E-04  6304   0.885E-02    0.558E-02
DAV:   6    -0.138209628719E+03   -0.79089E-05   -0.59109E-05  4652   0.554E-02
  23 F= -.15179186E+03 E0= -.15175749E+03  d E =-.465894E-01
       N       E                     dE             d eps       ncg     rms          rms(c)
DAV:   1    -0.138312884893E+03   -0.10326E+00   -0.12565E+00  6376   0.113E+01    0.547E-01
DAV:   2    -0.138349499802E+03   -0.36615E-01   -0.36480E-01  5572   0.159E+00    0.442E-01
DAV:   3    -0.138356990250E+03   -0.74904E-02   -0.50597E-02  5900   0.223E+00    0.639E-01
DAV:   4    -0.138348347161E+03    0.86431E-02   -0.19177E-02  5660   0.164E+00    0.210E-01
DAV:   5    -0.138348477589E+03   -0.13043E-03   -0.15198E-03  6948   0.266E-01    0.173E-01
DAV:   6    -0.138348489099E+03   -0.11510E-04   -0.56558E-04  5388   0.165E-01    0.126E-01
DAV:   7    -0.138348487596E+03    0.15026E-05   -0.27534E-04  6028   0.139E-01    0.654E-02
DAV:   8    -0.138348478497E+03    0.90990E-05   -0.11618E-04  5316   0.110E-01    0.372E-02
DAV:   9    -0.138348484226E+03   -0.57288E-05   -0.44115E-05  4308   0.381E-02
  24 F= -.15193093E+03 E0= -.15189633E+03  d E =-.185660E+00
       N       E                     dE             d eps       ncg     rms          rms(c)
DAV:   1    -0.138476714589E+03   -0.12824E+00   -0.50604E+00  6472   0.226E+01    0.114E+00
DAV:   2    -0.138623083055E+03   -0.14637E+00   -0.14785E+00  5600   0.307E+00    0.799E-01
DAV:   3    -0.138651456218E+03   -0.28373E-01   -0.17092E-01  6124   0.407E+00    0.122E+00
DAV:   4    -0.138620932528E+03    0.30524E-01   -0.69034E-02  5760   0.316E+00    0.418E-01
DAV:   5    -0.138621138855E+03   -0.20633E-03   -0.65564E-03  7168   0.578E-01    0.345E-01
DAV:   6    -0.138621081232E+03    0.57623E-04   -0.23788E-03  5632   0.328E-01    0.257E-01
DAV:   7    -0.138621004510E+03    0.76722E-04   -0.87995E-04  6116   0.258E-01    0.140E-01
DAV:   8    -0.138621009368E+03   -0.48582E-05   -0.40522E-04  6420   0.196E-01    0.765E-02
DAV:   9    -0.138620995899E+03    0.13469E-04   -0.24635E-04  6736   0.107E-01    0.519E-02
DAV:  10    -0.138620992636E+03    0.32630E-05   -0.42549E-05  4672   0.432E-02
  25 F= -.15220394E+03 E0= -.15216892E+03  d E =-.458664E+00
       N       E                     dE             d eps       ncg     rms          rms(c)
DAV:   1    -0.138538193271E+03    0.82803E-01   -0.20479E+01  6536   0.456E+01    0.246E+00
DAV:   2    -0.139137231540E+03   -0.59904E+00   -0.60434E+00  5632   0.646E+00    0.171E+00
DAV:   3    -0.139276408194E+03   -0.13918E+00   -0.80978E-01  6420   0.905E+00    0.268E+00
DAV:   4    -0.139124440316E+03    0.15197E+00   -0.30672E-01  5964   0.661E+00    0.882E-01
DAV:   5    -0.139125661212E+03   -0.12209E-02   -0.36429E-02  6928   0.126E+00    0.758E-01
DAV:   6    -0.139125512790E+03    0.14842E-03   -0.12449E-02  5584   0.678E-01    0.579E-01
DAV:   7    -0.139124894331E+03    0.61846E-03   -0.36529E-03  5964   0.559E-01    0.333E-01
DAV:   8    -0.139124885185E+03    0.91461E-05   -0.19823E-03  6868   0.424E-01    0.199E-01
DAV:   9    -0.139124653223E+03    0.23196E-03   -0.15203E-03  6452   0.325E-01    0.124E-01
DAV:  10    -0.139124642960E+03    0.10263E-04   -0.24681E-04  5320   0.926E-02    0.874E-02
DAV:  11    -0.139124643386E+03   -0.42640E-06   -0.54335E-05  4940   0.687E-02
  26 F= -.15270870E+03 E0= -.15267281E+03  d E =-.963431E+00
       N       E                     dE             d eps       ncg     rms          rms(c)
DAV:   1    -0.137306901836E+03    0.18177E+01   -0.83920E+01  6448   0.914E+01    0.605E+00
DAV:   2    -0.139761362637E+03   -0.24545E+01   -0.25301E+01  5796   0.136E+01    0.382E+00
DAV:   3    -0.140387061758E+03   -0.62570E+00   -0.32900E+00  6544   0.200E+01    0.587E+00
DAV:   4    -0.139700561783E+03    0.68650E+00   -0.13715E+00  6060   0.141E+01    0.209E+00
DAV:   5    -0.139699906628E+03    0.65516E-03   -0.21577E-01  7240   0.358E+00    0.181E+00
DAV:   6    -0.139699437301E+03    0.46933E-03   -0.84565E-02  5688   0.167E+00    0.132E+00
DAV:   7    -0.139698912252E+03    0.52505E-03   -0.21953E-02  5884   0.162E+00    0.811E-01
DAV:   8    -0.139696002908E+03    0.29093E-02   -0.16711E-02  6420   0.111E+00    0.431E-01
DAV:   9    -0.139694584733E+03    0.14182E-02   -0.91741E-03  5828   0.936E-01    0.280E-01
DAV:  10    -0.139694739077E+03   -0.15434E-03   -0.28479E-03  5384   0.252E-01    0.277E-01
DAV:  11    -0.139694725255E+03    0.13822E-04   -0.18654E-04  6024   0.106E-01    0.260E-01
DAV:  12    -0.139694636979E+03    0.88276E-04   -0.24640E-04  5428   0.122E-01    0.152E-01
DAV:  13    -0.139694671843E+03   -0.34864E-04   -0.52581E-04  5964   0.211E-01    0.101E-01
DAV:  14    -0.139694656627E+03    0.15216E-04   -0.17792E-04  5552   0.105E-01    0.600E-02
DAV:  15    -0.139694647540E+03    0.90874E-05   -0.44306E-05  4992   0.643E-02
  27 F= -.15328078E+03 E0= -.15324313E+03  d E =-.153551E+01
       N       E                     dE             d eps       ncg     rms          rms(c)
DAV:   1    -0.139314851312E+03    0.37981E+00   -0.12546E+01  7232   0.428E+01    0.260E+00
DAV:   2    -0.139892641282E+03   -0.57779E+00   -0.58972E+00  5484   0.503E+00    0.122E+00
DAV:   3    -0.139923685032E+03   -0.31044E-01   -0.27170E-01  7784   0.321E+00    0.119E+00
DAV:   4    -0.139920510699E+03    0.31743E-02   -0.92415E-02  5688   0.376E+00    0.106E+00
DAV:   5    -0.139909475898E+03    0.11035E-01   -0.21847E-02  6284   0.170E+00    0.713E-01
DAV:   6    -0.139909641367E+03   -0.16547E-03   -0.55384E-03  5676   0.401E-01    0.545E-01
DAV:   7    -0.139909871861E+03   -0.23049E-03   -0.10331E-03  5600   0.252E-01    0.299E-01
DAV:   8    -0.139909659345E+03    0.21252E-03   -0.13095E-03  5932   0.366E-01    0.116E-01
DAV:   9    -0.139909626990E+03    0.32355E-04   -0.46013E-04  7080   0.196E-01    0.110E-01
DAV:  10    -0.139909638297E+03   -0.11308E-04   -0.18009E-04  5112   0.773E-02    0.834E-02
DAV:  11    -0.139909648765E+03   -0.10468E-04   -0.31230E-05  3272   0.593E-02    0.621E-02
DAV:  12    -0.139909653163E+03   -0.43975E-05   -0.18223E-05  3388   0.295E-02
  28 F= -.15349624E+03 E0= -.15345864E+03  d E =-.215456E+00
       N       E                     dE             d eps       ncg     rms          rms(c)
DAV:   1    -0.134742010818E+03    0.51676E+01   -0.11151E+02  7420   0.127E+02    0.114E+01
DAV:   2    -0.140267978934E+03   -0.55260E+01   -0.56478E+01  5544   0.182E+01    0.536E+00
DAV:   3    -0.140413742253E+03   -0.14576E+00   -0.25735E+00  6812   0.897E+00    0.414E+00
DAV:   4    -0.140400876243E+03    0.12866E-01   -0.35297E-01  5880   0.588E+00    0.326E+00
DAV:   5    -0.140403665662E+03   -0.27894E-02   -0.15819E-01  5900   0.430E+00    0.295E+00
DAV:   6    -0.140385854588E+03    0.17811E-01   -0.45349E-02  6024   0.218E+00    0.250E+00
DAV:   7    -0.140383904093E+03    0.19505E-02   -0.16065E-02  5756   0.876E-01    0.133E+00
DAV:   8    -0.140383894423E+03    0.96697E-05   -0.10716E-02  5828   0.926E-01    0.447E-01
DAV:   9    -0.140384366597E+03   -0.47217E-03   -0.37103E-03  6788   0.396E-01    0.337E-01
DAV:  10    -0.140384437533E+03   -0.70936E-04   -0.70142E-04  5508   0.188E-01    0.252E-01
DAV:  11    -0.140384123444E+03    0.31409E-03   -0.67609E-04  5608   0.282E-01    0.108E-01
DAV:  12    -0.140384064642E+03    0.58802E-04   -0.18772E-04  4452   0.152E-01    0.567E-02
DAV:  13    -0.140384085576E+03   -0.20934E-04   -0.14844E-04  5200   0.779E-02    0.375E-02
DAV:  14    -0.140384088072E+03   -0.24961E-05   -0.26524E-05  3712   0.290E-02
  29 F= -.15397259E+03 E0= -.15393515E+03  d E =-.691805E+00
       N       E                     dE             d eps       ncg     rms          rms(c)
DAV:   1    -0.118095567063E+03    0.22289E+02   -0.46733E+02  7940   0.246E+02    0.310E+01
DAV:   2    -0.140922055497E+03   -0.22826E+02   -0.23039E+02  5776   0.448E+01    0.185E+01
DAV:   3    -0.141931512864E+03   -0.10095E+01   -0.19036E+01  6052   0.374E+01    0.138E+01
DAV:   4    -0.142158459480E+03   -0.22695E+00   -0.12011E+01  5936   0.362E+01    0.109E+01
DAV:   5    -0.140655524690E+03    0.15029E+01   -0.27003E+00  7560   0.177E+01    0.777E+00
DAV:   6    -0.140696069175E+03   -0.40544E-01   -0.90116E-01  5728   0.372E+00    0.717E+00
DAV:   7    -0.140698612091E+03   -0.25429E-02   -0.99925E-02  5852   0.104E+00    0.673E+00
DAV:   8    -0.140693698601E+03    0.49135E-02   -0.19547E-02  5656   0.118E+00    0.594E+00
DAV:   9    -0.140684251355E+03    0.94472E-02   -0.20345E-02  6912   0.179E+00    0.409E+00
DAV:  10    -0.140674419960E+03    0.98314E-02   -0.61738E-02  6440   0.207E+00    0.118E+00
DAV:  11    -0.140675152099E+03   -0.73214E-03   -0.23143E-02  5448   0.710E-01    0.107E+00
DAV:  12    -0.140675341757E+03   -0.18966E-03   -0.19505E-03  5712   0.153E-01    0.110E+00
DAV:  13    -0.140675758109E+03   -0.41635E-03   -0.67075E-04  5396   0.188E-01    0.109E+00
DAV:  14    -0.140675463827E+03    0.29428E-03   -0.16651E-04  6492   0.970E-02    0.109E+00
DAV:  15    -0.140675169474E+03    0.29435E-03   -0.15338E-03  5448   0.289E-01    0.108E+00
DAV:  16    -0.140677333485E+03   -0.21640E-02   -0.64020E-03  5336   0.471E-01    0.125E+00
DAV:  17    -0.140691382411E+03   -0.14049E-01   -0.28522E-02  5516   0.826E-01    0.257E+00
DAV:  18    -0.140699245050E+03   -0.78626E-02   -0.71249E-03  5948   0.379E-01    0.315E+00
DAV:  19    -0.140697210051E+03    0.20350E-02   -0.12721E-03  5408   0.286E-01    0.313E+00
DAV:  20    -0.140687232383E+03    0.99777E-02   -0.50661E-03  5516   0.425E-01    0.244E+00
DAV:  21    -0.140680640768E+03    0.65916E-02   -0.50282E-03  5560   0.325E-01    0.181E+00
DAV:  22    -0.140679552307E+03    0.10885E-02   -0.63890E-04  5688   0.935E-02    0.166E+00
DAV:  23    -0.140679002536E+03    0.54977E-03   -0.55132E-05  5076   0.396E-02    0.159E+00
DAV:  24    -0.140674917858E+03    0.40847E-02   -0.36418E-03  5480   0.345E-01    0.987E-01
DAV:  25    -0.140672504924E+03    0.24129E-02   -0.10479E-02  5452   0.533E-01    0.107E-01
DAV:  26    -0.140672707383E+03   -0.20246E-03   -0.15175E-03  5564   0.121E-01    0.194E-01
DAV:  27    -0.140672669144E+03    0.38238E-04   -0.19365E-04  5240   0.704E-02    0.105E-01
DAV:  28    -0.140672672135E+03   -0.29907E-05   -0.24236E-05  3608   0.226E-02
  30 F= -.15426854E+03 E0= -.15423094E+03  d E =-.987755E+00
       N       E                     dE             d eps       ncg     rms          rms(c)
DAV:   1    -0.137942991960E+03    0.27297E+01   -0.62351E+01  6860   0.991E+01    0.716E+00
DAV:   2    -0.140908496237E+03   -0.29655E+01   -0.29719E+01  5788   0.158E+01    0.480E+00
DAV:   3    -0.141571500338E+03   -0.66300E+00   -0.41323E+00  6616   0.212E+01    0.605E+00
DAV:   4    -0.140913901647E+03    0.65760E+00   -0.20904E+00  5948   0.161E+01    0.257E+00
DAV:   5    -0.140869729297E+03    0.44172E-01   -0.28416E-01  7764   0.462E+00    0.205E+00
DAV:   6    -0.140873682603E+03   -0.39533E-02   -0.10304E-01  5772   0.140E+00    0.164E+00
DAV:   7    -0.140872634385E+03    0.10482E-02   -0.12919E-02  6000   0.664E-01    0.136E+00
DAV:   8    -0.140872348500E+03    0.28588E-03   -0.50375E-03  5612   0.715E-01    0.941E-01
DAV:   9    -0.140871179658E+03    0.11688E-02   -0.91317E-03  6028   0.104E+00    0.370E-01
DAV:  10    -0.140871211738E+03   -0.32080E-04   -0.31712E-03  7496   0.376E-01    0.284E-01
DAV:  11    -0.140871029559E+03    0.18218E-03   -0.68251E-04  5360   0.186E-01    0.227E-01
DAV:  12    -0.140870867008E+03    0.16255E-03   -0.29291E-04  5672   0.192E-01    0.146E-01
DAV:  13    -0.140870894897E+03   -0.27889E-04   -0.52639E-04  6280   0.805E-02    0.939E-02
DAV:  14    -0.140870893782E+03    0.11150E-05   -0.52307E-05  4800   0.341E-02
  31 F= -.15446636E+03 E0= -.15443026E+03  d E =-.197820E+00
       N       E                     dE             d eps       ncg     rms          rms(c)
DAV:   1    -0.140870889681E+03    0.52157E-05   -0.19690E-04  7592   0.173E-01    0.595E-02
DAV:   2    -0.140870944007E+03   -0.54326E-04   -0.22384E-04  5624   0.162E-01    0.530E-02
DAV:   3    -0.140871001847E+03   -0.57840E-04   -0.54353E-04  5052   0.284E-01    0.720E-02
DAV:   4    -0.140870910840E+03    0.91007E-04   -0.28402E-04  3208   0.204E-01    0.198E-02
DAV:   5    -0.140870909301E+03    0.15392E-05   -0.14015E-05  3176   0.531E-02
  32 F= -.15446638E+03 E0= -.15443029E+03  d E =-.197836E+00
       N       E                     dE             d eps       ncg     rms          rms(c)
DAV:   1    -0.138789081109E+03    0.20818E+01   -0.44088E+01  7120   0.951E+01    0.576E+00
DAV:   2    -0.141027619452E+03   -0.22385E+01   -0.22886E+01  5336   0.116E+01    0.255E+00
DAV:   3    -0.141135721227E+03   -0.10810E+00   -0.10575E+00  8364   0.716E+00    0.255E+00
DAV:   4    -0.141118420425E+03    0.17301E-01   -0.35824E-01  5912   0.681E+00    0.213E+00
DAV:   5    -0.141085205266E+03    0.33215E-01   -0.77782E-02  5840   0.317E+00    0.158E+00
DAV:   6    -0.141086424749E+03   -0.12195E-02   -0.24422E-02  5756   0.589E-01    0.139E+00
DAV:   7    -0.141086054905E+03    0.36984E-03   -0.21114E-03  6236   0.315E-01    0.116E+00
DAV:   8    -0.141085476326E+03    0.57858E-03   -0.14957E-03  5604   0.405E-01    0.706E-01
DAV:   9    -0.141085125431E+03    0.35090E-03   -0.26388E-03  7588   0.560E-01    0.236E-01
DAV:  10    -0.141085222263E+03   -0.96832E-04   -0.11591E-03  7348   0.175E-01    0.146E-01
DAV:  11    -0.141085228925E+03   -0.66623E-05   -0.21462E-04  5268   0.100E-01    0.126E-01
DAV:  12    -0.141085209513E+03    0.19412E-04   -0.72377E-05  4820   0.797E-02    0.975E-02
DAV:  13    -0.141085221135E+03   -0.11622E-04   -0.53465E-05  3956   0.798E-02    0.481E-02
DAV:  14    -0.141085227513E+03   -0.63776E-05   -0.59369E-05  4584   0.448E-02
  33 F= -.15467645E+03 E0= -.15464003E+03  d E =-.210074E+00
       N       E                     dE             d eps       ncg     rms          rms(c)
DAV:   1    -0.118112370933E+03    0.22973E+02   -0.37905E+02  7084   0.278E+02    0.343E+01
DAV:   2    -0.142230324486E+03   -0.24118E+02   -0.24546E+02  6376   0.504E+01    0.204E+01
DAV:   3    -0.144795851965E+03   -0.25655E+01   -0.23139E+01  5772   0.502E+01    0.166E+01
DAV:   4    -0.143151512746E+03    0.16443E+01   -0.17078E+01  5924   0.408E+01    0.121E+01
DAV:   5    -0.141492733947E+03    0.16588E+01   -0.28588E+00  8156   0.168E+01    0.881E+00
DAV:   6    -0.141549381164E+03   -0.56647E-01   -0.12612E+00  5680   0.432E+00    0.777E+00
DAV:   7    -0.141538676123E+03    0.10705E-01   -0.11550E-01  5680   0.135E+00    0.707E+00
DAV:   8    -0.141527905733E+03    0.10770E-01   -0.12482E-02  5660   0.896E-01    0.638E+00
DAV:   9    -0.141507960462E+03    0.19945E-01   -0.24279E-02  7668   0.178E+00    0.407E+00
DAV:  10    -0.141503175953E+03    0.47845E-02   -0.56159E-02  5796   0.141E+00    0.166E+00
DAV:  11    -0.141503793333E+03   -0.61738E-03   -0.12374E-02  5368   0.475E-01    0.156E+00
DAV:  12    -0.141503403519E+03    0.38981E-03   -0.52933E-04  6308   0.130E-01    0.152E+00
DAV:  13    -0.141502024765E+03    0.13788E-02   -0.15837E-03  5616   0.311E-01    0.125E+00
DAV:  14    -0.141501522877E+03    0.50189E-03   -0.33728E-03  5628   0.429E-01    0.494E-01
DAV:  15    -0.141501638991E+03   -0.11611E-03   -0.97237E-04  5812   0.161E-01    0.387E-01
DAV:  16    -0.141501610677E+03    0.28314E-04   -0.36067E-04  5440   0.130E-01    0.300E-01
DAV:  17    -0.141501549072E+03    0.61605E-04   -0.22229E-04  5472   0.148E-01    0.162E-01
DAV:  18    -0.141501566865E+03   -0.17793E-04   -0.21096E-04  5236   0.867E-02    0.152E-01
DAV:  19    -0.141501571259E+03   -0.43930E-05   -0.10707E-04  4708   0.602E-02    0.126E-01
DAV:  20    -0.141501571255E+03    0.30850E-08   -0.10268E-05  3092   0.190E-02
  34 F= -.15506226E+03 E0= -.15502488E+03  d E =-.595885E+00
       N       E                     dE             d eps       ncg     rms          rms(c)
DAV:   1    -0.485711683300E+02    0.92930E+02   -0.16702E+03  6884   0.517E+02    0.683E+01
DAV:   2    -0.153179172578E+03   -0.10461E+03   -0.10392E+03  5740   0.134E+02    0.620E+01
DAV:   3    -0.153083118963E+03    0.96054E-01   -0.12323E+02  6580   0.870E+01    0.321E+01
DAV:   4    -0.170250302046E+03   -0.17167E+02   -0.55831E+01  7100   0.895E+01    0.507E+01
DAV:   5    -0.144375221688E+03    0.25875E+02   -0.44594E+01  6688   0.366E+01    0.248E+01
DAV:   6    -0.142039502492E+03    0.23357E+01   -0.97090E+00  6288   0.187E+01    0.182E+01
DAV:   7    -0.141725245003E+03    0.31426E+00   -0.51224E+00  5720   0.859E+00    0.156E+01
DAV:   8    -0.141577012521E+03    0.14823E+00   -0.48997E-01  5808   0.499E+00    0.140E+01
DAV:   9    -0.141484381718E+03    0.92631E-01   -0.15480E-01  7080   0.442E+00    0.124E+01
DAV:  10    -0.141339237704E+03    0.14514E+00   -0.25646E-01  5892   0.328E+00    0.987E+00
DAV:  11    -0.141258180717E+03    0.81057E-01   -0.15750E-01  6640   0.343E+00    0.715E+00
DAV:  12    -0.141256839763E+03    0.13410E-02   -0.18225E-01  5480   0.192E+00    0.567E+00
DAV:  13    -0.141226184322E+03    0.30655E-01   -0.38734E-02  5744   0.195E+00    0.408E+00
DAV:  14    -0.141213322654E+03    0.12862E-01   -0.47136E-02  6696   0.213E+00    0.215E+00
DAV:  15    -0.141214391540E+03   -0.10689E-02   -0.23694E-02  5552   0.679E-01    0.194E+00
DAV:  16    -0.141213756019E+03    0.63552E-03   -0.39307E-03  5828   0.461E-01    0.152E+00
DAV:  17    -0.141210575893E+03    0.31801E-02   -0.42311E-03  6412   0.708E-01    0.685E-01
DAV:  18    -0.141210218781E+03    0.35711E-03   -0.46843E-03  6480   0.375E-01    0.326E-01
DAV:  19    -0.141210412826E+03   -0.19404E-03   -0.15171E-03  5376   0.200E-01    0.306E-01
DAV:  20    -0.141210236760E+03    0.17607E-03   -0.33474E-04  5352   0.111E-01    0.256E-01
DAV:  21    -0.141210037175E+03    0.19958E-03   -0.34562E-04  5480   0.110E-01    0.178E-01
DAV:  22    -0.141210037156E+03    0.18917E-07   -0.18349E-04  5180   0.843E-02    0.154E-01
DAV:  23    -0.141210035686E+03    0.14698E-05   -0.33684E-05  4112   0.373E-02
  35 F= -.15476131E+03 E0= -.15472175E+03  d E =-.294937E+00
       N       E                     dE             d eps       ncg     rms          rms(c)
DAV:   1    -0.939146974976E+02    0.47295E+02   -0.82839E+02  7340   0.381E+02    0.551E+01
DAV:   2    -0.144113419334E+03   -0.50199E+02   -0.50429E+02  6248   0.751E+01    0.324E+01
DAV:   3    -0.151142716647E+03   -0.70293E+01   -0.52651E+01  6028   0.742E+01    0.284E+01
DAV:   4    -0.145252863861E+03    0.58899E+01   -0.28364E+01  6212   0.540E+01    0.188E+01
DAV:   5    -0.141602224609E+03    0.36506E+01   -0.63621E+00  7824   0.228E+01    0.143E+01
DAV:   6    -0.141795328380E+03   -0.19310E+00   -0.37977E+00  5632   0.810E+00    0.130E+01
DAV:   7    -0.141745391188E+03    0.49937E-01   -0.27951E-01  5872   0.200E+00    0.121E+01
DAV:   8    -0.141699053408E+03    0.46338E-01   -0.19862E-02  6296   0.143E+00    0.114E+01
DAV:   9    -0.141624903670E+03    0.74150E-01   -0.63185E-02  7024   0.243E+00    0.887E+00
DAV:  10    -0.141597764457E+03    0.27139E-01   -0.19805E-01  6124   0.310E+00    0.506E+00
DAV:  11    -0.141599572527E+03   -0.18081E-02   -0.58533E-02  5432   0.972E-01    0.472E+00
DAV:  12    -0.141592294825E+03    0.72777E-02   -0.41344E-03  6736   0.544E-01    0.406E+00
DAV:  13    -0.141585071393E+03    0.72234E-02   -0.21004E-02  5872   0.113E+00    0.188E+00
DAV:  14    -0.141583796968E+03    0.12744E-02   -0.10793E-02  5412   0.756E-01    0.104E+00
DAV:  15    -0.141583195256E+03    0.60171E-03   -0.16845E-03  6424   0.278E-01    0.980E-01
DAV:  16    -0.141582384153E+03    0.81110E-03   -0.10227E-03  5768   0.281E-01    0.754E-01
DAV:  17    -0.141581930571E+03    0.45358E-03   -0.13923E-03  6156   0.313E-01    0.334E-01
DAV:  18    -0.141581945295E+03   -0.14724E-04   -0.14819E-03  5428   0.144E-01    0.219E-01
DAV:  19    -0.141581868697E+03    0.76599E-04   -0.38394E-04  6164   0.132E-01    0.179E-01
DAV:  20    -0.141581869954E+03   -0.12573E-05   -0.15046E-04  4828   0.519E-02    0.159E-01
DAV:  21    -0.141581868627E+03    0.13274E-05   -0.19455E-05  3336   0.301E-02
  36 F= -.15513672E+03 E0= -.15509875E+03  d E =-.670341E+00
       N       E                     dE             d eps       ncg     rms          rms(c)
DAV:   1    -0.141394502186E+03    0.18737E+00   -0.40428E+00  7188   0.280E+01    0.134E+00
DAV:   2    -0.141579769649E+03   -0.18527E+00   -0.18935E+00  5264   0.313E+00    0.596E-01
DAV:   3    -0.141585295936E+03   -0.55263E-02   -0.63424E-02  7912   0.120E+00    0.481E-01
DAV:   4    -0.141585673770E+03   -0.37783E-03   -0.11513E-02  6008   0.107E+00    0.468E-01
DAV:   5    -0.141584408667E+03    0.12651E-02   -0.26096E-03  5588   0.585E-01    0.368E-01
DAV:   6    -0.141584407799E+03    0.86814E-06   -0.58228E-04  6780   0.207E-01    0.298E-01
DAV:   7    -0.141584426159E+03   -0.18360E-04   -0.34735E-04  5432   0.187E-01    0.133E-01
DAV:   8    -0.141584426424E+03   -0.26470E-06   -0.36100E-04  6180   0.168E-01    0.470E-02
DAV:   9    -0.141584438880E+03   -0.12456E-04   -0.85423E-05  5748   0.623E-02    0.356E-02
DAV:  10    -0.141584444607E+03   -0.57268E-05   -0.51708E-05  4608   0.450E-02
  37 F= -.15513860E+03 E0= -.15510049E+03  d E =-.672223E+00
       N       E                     dE             d eps       ncg     rms          rms(c)
DAV:   1    -0.140596139547E+03    0.98830E+00   -0.24300E+01  6788   0.645E+01    0.360E+00
DAV:   2    -0.141651212464E+03   -0.10551E+01   -0.10820E+01  5364   0.746E+00    0.153E+00
DAV:   3    -0.141727148074E+03   -0.75936E-01   -0.55574E-01  8216   0.569E+00    0.197E+00
DAV:   4    -0.141682574662E+03    0.44573E-01   -0.18490E-01  5808   0.498E+00    0.122E+00
DAV:   5    -0.141677320161E+03    0.52545E-02   -0.24918E-02  6768   0.150E+00    0.959E-01
DAV:   6    -0.141677527679E+03   -0.20752E-03   -0.98084E-03  5792   0.622E-01    0.741E-01
DAV:   7    -0.141677501063E+03    0.26616E-04   -0.28968E-03  5436   0.498E-01    0.287E-01
DAV:   8    -0.141677740007E+03   -0.23894E-03   -0.20781E-03  6984   0.302E-01    0.173E-01
DAV:   9    -0.141677690632E+03    0.49375E-04   -0.62343E-04  5420   0.193E-01    0.142E-01
DAV:  10    -0.141677663771E+03    0.26861E-04   -0.10226E-04  5280   0.797E-02    0.846E-02
DAV:  11    -0.141677656762E+03    0.70090E-05   -0.51202E-05  4484   0.792E-02
  38 F= -.15523284E+03 E0= -.15519386E+03  d E =-.942367E-01
       N       E                     dE             d eps       ncg     rms          rms(c)
DAV:   1    -0.140818701802E+03    0.85896E+00   -0.20070E+01  6768   0.585E+01    0.321E+00
DAV:   2    -0.141684406986E+03   -0.86571E+00   -0.88874E+00  5404   0.676E+00    0.138E+00
DAV:   3    -0.141740966283E+03   -0.56559E-01   -0.43442E-01  8168   0.493E+00    0.169E+00
DAV:   4    -0.141710731168E+03    0.30235E-01   -0.14107E-01  5824   0.442E+00    0.110E+00
DAV:   5    -0.141705684585E+03    0.50466E-02   -0.19509E-02  6776   0.140E+00    0.846E-01
DAV:   6    -0.141705862917E+03   -0.17833E-03   -0.78489E-03  5828   0.595E-01    0.644E-01
DAV:   7    -0.141705947256E+03   -0.84339E-04   -0.25184E-03  5424   0.452E-01    0.236E-01
DAV:   8    -0.141706107380E+03   -0.16012E-03   -0.16914E-03  6844   0.269E-01    0.145E-01
DAV:   9    -0.141706067072E+03    0.40307E-04   -0.43123E-04  5384   0.164E-01    0.120E-01
DAV:  10    -0.141706070796E+03   -0.37244E-05   -0.81799E-05  4964   0.675E-02
  39 F= -.15526237E+03 E0= -.15522257E+03  d E =-.123769E+00
       N       E                     dE             d eps       ncg     rms          rms(c)
DAV:   1    -0.141654629692E+03    0.51437E-01   -0.18267E+00  6956   0.178E+01    0.851E-01
DAV:   2    -0.141732993436E+03   -0.78364E-01   -0.80158E-01  5348   0.206E+00    0.418E-01
DAV:   3    -0.141737766463E+03   -0.47730E-02   -0.34980E-02  5644   0.155E+00    0.475E-01
DAV:   4    -0.141734870549E+03    0.28959E-02   -0.10499E-02  6476   0.117E+00    0.269E-01
DAV:   5    -0.141734775919E+03    0.94630E-04   -0.16173E-03  7916   0.382E-01    0.227E-01
DAV:   6    -0.141734731741E+03    0.44178E-04   -0.45394E-04  5852   0.170E-01    0.172E-01
DAV:   7    -0.141734766020E+03   -0.34279E-04   -0.14905E-04  5460   0.120E-01    0.118E-01
DAV:   8    -0.141734839085E+03   -0.73065E-04   -0.18251E-04  5224   0.119E-01    0.337E-02
DAV:   9    -0.141734853816E+03   -0.14731E-04   -0.75499E-05  5788   0.542E-02    0.222E-02
DAV:  10    -0.141734854324E+03   -0.50763E-06   -0.13153E-05  3048   0.211E-02
  40 F= -.15529160E+03 E0= -.15525185E+03  d E =-.292368E-01
       N       E                     dE             d eps       ncg     rms          rms(c)
DAV:   1    -0.141066348238E+03    0.66851E+00   -0.16218E+01  6904   0.535E+01    0.287E+00
DAV:   2    -0.141792744790E+03   -0.72640E+00   -0.74417E+00  5412   0.622E+00    0.121E+00
DAV:   3    -0.141821351730E+03   -0.28607E-01   -0.27698E-01  8212   0.317E+00    0.119E+00
DAV:   4    -0.141816750537E+03    0.46012E-02   -0.71248E-02  5964   0.298E+00    0.100E+00
DAV:   5    -0.141811324015E+03    0.54265E-02   -0.15016E-02  5548   0.143E+00    0.772E-01
DAV:   6    -0.141811229541E+03    0.94474E-04   -0.44754E-03  6092   0.430E-01    0.614E-01
DAV:   7    -0.141811352272E+03   -0.12273E-03   -0.15730E-03  5696   0.391E-01    0.258E-01
DAV:   8    -0.141811462098E+03   -0.10983E-03   -0.17868E-03  6620   0.349E-01    0.970E-02
DAV:   9    -0.141811492259E+03   -0.30161E-04   -0.42664E-04  6660   0.142E-01    0.910E-02
DAV:  10    -0.141811500604E+03   -0.83448E-05   -0.11297E-04  4760   0.517E-02    0.659E-02
DAV:  11    -0.141811500767E+03   -0.16254E-06   -0.44383E-05  3292   0.825E-02
  41 F= -.15536977E+03 E0= -.15533012E+03  d E =-.107401E+00
       N       E                     dE             d eps       ncg     rms          rms(c)
DAV:   1    -0.138781762115E+03    0.30297E+01   -0.63439E+01  6896   0.107E+02    0.698E+00
DAV:   2    -0.141859414684E+03   -0.30777E+01   -0.31517E+01  5536   0.138E+01    0.317E+00
DAV:   3    -0.142033534926E+03   -0.17412E+00   -0.14421E+00  8308   0.995E+00    0.340E+00
DAV:   4    -0.141958593694E+03    0.74941E-01   -0.60467E-01  5904   0.926E+00    0.251E+00
DAV:   5    -0.141917412076E+03    0.41182E-01   -0.11517E-01  6164   0.366E+00    0.188E+00
DAV:   6    -0.141919268780E+03   -0.18567E-02   -0.41871E-02  5928   0.894E-01    0.164E+00
DAV:   7    -0.141918766376E+03    0.50240E-03   -0.47536E-03  5680   0.432E-01    0.124E+00
DAV:   8    -0.141918542156E+03    0.22422E-03   -0.50666E-03  5600   0.693E-01    0.457E-01
DAV:   9    -0.141918637872E+03   -0.95717E-04   -0.38363E-03  7044   0.568E-01    0.233E-01
DAV:  10    -0.141918838811E+03   -0.20094E-03   -0.96747E-04  6452   0.170E-01    0.186E-01
DAV:  11    -0.141918741456E+03    0.97355E-04   -0.43046E-04  5236   0.200E-01    0.126E-01
DAV:  12    -0.141918723017E+03    0.18439E-04   -0.16414E-04  5320   0.148E-01    0.818E-02
DAV:  13    -0.141918745136E+03   -0.22118E-04   -0.13599E-04  4832   0.530E-02    0.499E-02
DAV:  14    -0.141918744272E+03    0.86334E-06   -0.13874E-05  3272   0.316E-02
  42 F= -.15548081E+03 E0= -.15544146E+03  d E =-.218445E+00
       N       E                     dE             d eps       ncg     rms          rms(c)
DAV:   1    -0.128577573364E+03    0.13341E+02   -0.24820E+02  6944   0.212E+02    0.205E+01
DAV:   2    -0.141945226019E+03   -0.13368E+02   -0.13635E+02  5700   0.338E+01    0.113E+01
DAV:   3    -0.143614970236E+03   -0.16697E+01   -0.11612E+01  6184   0.353E+01    0.110E+01
DAV:   4    -0.142440685828E+03    0.11743E+01   -0.77028E+00  7212   0.294E+01    0.737E+00
DAV:   5    -0.141918215885E+03    0.52247E+00   -0.13983E+00  8212   0.112E+01    0.539E+00
DAV:   6    -0.141942037103E+03   -0.23821E-01   -0.50343E-01  5696   0.286E+00    0.490E+00
DAV:   7    -0.141943552590E+03   -0.15155E-02   -0.45998E-02  5984   0.779E-01    0.462E+00
DAV:   8    -0.141938268303E+03    0.52843E-02   -0.11783E-02  5552   0.806E-01    0.386E+00
DAV:   9    -0.141933428304E+03    0.48400E-02   -0.21996E-02  5956   0.194E+00    0.214E+00
DAV:  10    -0.141932729602E+03    0.69870E-03   -0.35021E-02  6856   0.135E+00    0.785E-01
DAV:  11    -0.141931868038E+03    0.86156E-03   -0.89182E-03  5504   0.466E-01    0.642E-01
DAV:  12    -0.141931658193E+03    0.20985E-03   -0.11894E-03  5628   0.155E-01    0.599E-01
DAV:  13    -0.141931462509E+03    0.19568E-03   -0.11555E-04  6648   0.637E-02    0.553E-01
DAV:  14    -0.141930085294E+03    0.13772E-02   -0.28115E-03  5588   0.596E-01    0.245E-01
DAV:  15    -0.141930340830E+03   -0.25554E-03   -0.22732E-03  5612   0.184E-01    0.226E-01
DAV:  16    -0.141930326669E+03    0.14161E-04   -0.22156E-04  5312   0.900E-02    0.181E-01
DAV:  17    -0.141930297568E+03    0.29102E-04   -0.46273E-05  4740   0.299E-02    0.142E-01
DAV:  18    -0.141930285463E+03    0.12105E-04   -0.80359E-05  4856   0.735E-02    0.895E-02
DAV:  19    -0.141930298898E+03   -0.13435E-04   -0.61079E-05  4680   0.522E-02    0.729E-02
DAV:  20    -0.141930305659E+03   -0.67605E-05   -0.22863E-05  3736   0.222E-02
  43 F= -.15550347E+03 E0= -.15546505E+03  d E =-.241102E+00
       N       E                     dE             d eps       ncg     rms          rms(c)
DAV:   1    -0.139630233821E+03    0.23001E+01   -0.47846E+01  6876   0.937E+01    0.578E+00
DAV:   2    -0.141894875725E+03   -0.22646E+01   -0.23222E+01  5344   0.114E+01    0.234E+00
DAV:   3    -0.141975465758E+03   -0.80590E-01   -0.91311E-01  8184   0.476E+00    0.215E+00
DAV:   4    -0.141980892613E+03   -0.54269E-02   -0.18521E-01  5852   0.476E+00    0.201E+00
DAV:   5    -0.141961479375E+03    0.19413E-01   -0.55198E-02  5668   0.269E+00    0.158E+00
DAV:   6    -0.141960872271E+03    0.60710E-03   -0.11508E-02  5740   0.709E-01    0.135E+00
DAV:   7    -0.141961313875E+03   -0.44160E-03   -0.40480E-03  5704   0.612E-01    0.798E-01
DAV:   8    -0.141960617488E+03    0.69639E-03   -0.70099E-03  6036   0.813E-01    0.254E-01
DAV:   9    -0.141960874158E+03   -0.25667E-03   -0.24280E-03  7628   0.391E-01    0.232E-01
DAV:  10    -0.141960817322E+03    0.56836E-04   -0.92598E-04  5340   0.202E-01    0.147E-01
DAV:  11    -0.141960810633E+03    0.66891E-05   -0.16687E-04  5248   0.141E-01    0.895E-02
DAV:  12    -0.141960834638E+03   -0.24005E-04   -0.10661E-04  5948   0.688E-02    0.492E-02
DAV:  13    -0.141960836931E+03   -0.22927E-05   -0.38261E-05  4668   0.476E-02
  44 F= -.15552861E+03 E0= -.15548973E+03  d E =-.266242E+00
       N       E                     dE             d eps       ncg     rms          rms(c)
DAV:   1    -0.141919636802E+03    0.41198E-01   -0.12044E+00  6928   0.140E+01    0.675E-01
DAV:   2    -0.141968712166E+03   -0.49075E-01   -0.50409E-01  5288   0.157E+00    0.286E-01
DAV:   3    -0.141970170611E+03   -0.14584E-02   -0.15792E-02  6856   0.365E-01    0.207E-01
DAV:   4    -0.141970201481E+03   -0.30870E-04   -0.15462E-03  5988   0.290E-01    0.197E-01
DAV:   5    -0.141970080718E+03    0.12076E-03   -0.53619E-04  5348   0.287E-01    0.171E-01
DAV:   6    -0.141970093451E+03   -0.12733E-04   -0.22639E-04  4524   0.199E-01    0.118E-01
DAV:   7    -0.141970157785E+03   -0.64334E-04   -0.17721E-04  6488   0.145E-01    0.222E-02
DAV:   8    -0.141970165403E+03   -0.76175E-05   -0.86578E-05  5172   0.396E-02
  45 F= -.15553788E+03 E0= -.15549895E+03  d E =-.927491E-02
       N       E                     dE             d eps       ncg     rms          rms(c)
DAV:   1    -0.141522482111E+03    0.44768E+00   -0.10690E+01  6884   0.421E+01    0.227E+00
DAV:   2    -0.141981231681E+03   -0.45875E+00   -0.47055E+00  5364   0.491E+00    0.923E-01
DAV:   3    -0.141993481791E+03   -0.12250E-01   -0.14516E-01  6820   0.136E+00    0.755E-01
DAV:   4    -0.141993753021E+03   -0.27123E-03   -0.15534E-02  5876   0.106E+00    0.676E-01
DAV:   5    -0.141992990396E+03    0.76262E-03   -0.59804E-03  5524   0.938E-01    0.601E-01
DAV:   6    -0.141992510151E+03    0.48025E-03   -0.24408E-03  5576   0.618E-01    0.468E-01
DAV:   7    -0.141992673022E+03   -0.16287E-03   -0.17680E-03  6824   0.459E-01    0.968E-02
DAV:   8    -0.141992735753E+03   -0.62731E-04   -0.10088E-03  6208   0.176E-01    0.864E-02
DAV:   9    -0.141992731168E+03    0.45851E-05   -0.13638E-04  5584   0.656E-02    0.746E-02
DAV:  10    -0.141992740876E+03   -0.97085E-05   -0.15059E-05  3264   0.228E-02
  46 F= -.15556038E+03 E0= -.15552131E+03  d E =-.317705E-01
       N       E                     dE             d eps       ncg     rms          rms(c)
DAV:   1    -0.140038811766E+03    0.19539E+01   -0.41955E+01  6892   0.843E+01    0.559E+00
DAV:   2    -0.141967612418E+03   -0.19288E+01   -0.19787E+01  5388   0.103E+01    0.248E+00
DAV:   3    -0.142032499065E+03   -0.64887E-01   -0.79599E-01  7964   0.507E+00    0.216E+00
DAV:   4    -0.142032120706E+03    0.37836E-03   -0.15300E-01  5732   0.460E+00    0.186E+00
DAV:   5    -0.142014986543E+03    0.17134E-01   -0.54043E-02  5780   0.274E+00    0.149E+00
DAV:   6    -0.142013930049E+03    0.10565E-02   -0.10622E-02  6076   0.773E-01    0.123E+00
DAV:   7    -0.142014856206E+03   -0.92616E-03   -0.42272E-03  5972   0.671E-01    0.620E-01
DAV:   8    -0.142014673494E+03    0.18271E-03   -0.63850E-03  6484   0.766E-01    0.212E-01
DAV:   9    -0.142014712882E+03   -0.39388E-04   -0.18550E-03  7084   0.348E-01    0.205E-01
DAV:  10    -0.142014732825E+03   -0.19943E-04   -0.61567E-04  5360   0.120E-01    0.154E-01
DAV:  11    -0.142014721095E+03    0.11729E-04   -0.11513E-04  5052   0.130E-01    0.864E-02
DAV:  12    -0.142014738300E+03   -0.17205E-04   -0.49044E-05  4536   0.665E-02    0.379E-02
DAV:  13    -0.142014747880E+03   -0.95797E-05   -0.66333E-05  4716   0.480E-02
  47 F= -.15558256E+03 E0= -.15554319E+03  d E =-.539474E-01
       N       E                     dE             d eps       ncg     rms          rms(c)
DAV:   1    -0.141724415967E+03    0.29032E+00   -0.70539E+00  6832   0.347E+01    0.185E+00
DAV:   2    -0.142027452868E+03   -0.30304E+00   -0.30981E+00  5392   0.427E+00    0.989E-01
DAV:   3    -0.142059490464E+03   -0.32038E-01   -0.19903E-01  7124   0.426E+00    0.129E+00
DAV:   4    -0.142033459280E+03    0.26031E-01   -0.83826E-02  6052   0.358E+00    0.630E-01
DAV:   5    -0.142032039117E+03    0.14202E-02   -0.99222E-03  6748   0.957E-01    0.500E-01
DAV:   6    -0.142032081878E+03   -0.42761E-04   -0.35009E-03  5764   0.356E-01    0.385E-01
DAV:   7    -0.142032166896E+03   -0.85018E-04   -0.93013E-04  5988   0.269E-01    0.216E-01
DAV:   8    -0.142032307589E+03   -0.14069E-03   -0.62398E-04  6280   0.217E-01    0.960E-02
DAV:   9    -0.142032289170E+03    0.18419E-04   -0.35444E-04  6388   0.164E-01    0.633E-02
DAV:  10    -0.142032294805E+03   -0.56348E-05   -0.72772E-05  5016   0.411E-02
  48 F= -.15559937E+03 E0= -.15556033E+03  d E =-.168126E-01
       N       E                     dE             d eps       ncg     rms          rms(c)
DAV:   1    -0.141976820626E+03    0.55469E-01   -0.13566E+00  6884   0.151E+01    0.748E-01
DAV:   2    -0.142033201493E+03   -0.56381E-01   -0.57776E-01  5316   0.183E+00    0.409E-01
DAV:   3    -0.142038814706E+03   -0.56132E-02   -0.34424E-02  6232   0.179E+00    0.522E-01
DAV:   4    -0.142034328957E+03    0.44857E-02   -0.14558E-02  6144   0.147E+00    0.250E-01
DAV:   5    -0.142034150996E+03    0.17796E-03   -0.16940E-03  7308   0.410E-01    0.193E-01
DAV:   6    -0.142034146915E+03    0.40808E-05   -0.52868E-04  5652   0.171E-01    0.138E-01
DAV:   7    -0.142034214505E+03   -0.67590E-04   -0.17426E-04  5532   0.127E-01    0.761E-02
DAV:   8    -0.142034246264E+03   -0.31758E-04   -0.12730E-04  5788   0.911E-02    0.324E-02
DAV:   9    -0.142034245358E+03    0.90559E-06   -0.47114E-05  4952   0.610E-02
  49 F= -.15560101E+03 E0= -.15556214E+03  d E =-.184583E-01
       N       E                     dE             d eps       ncg     rms          rms(c)
DAV:   1    -0.141616064999E+03    0.41818E+00   -0.93100E+00  7000   0.416E+01    0.224E+00
DAV:   2    -0.142042405049E+03   -0.42634E+00   -0.43719E+00  5312   0.472E+00    0.942E-01
DAV:   3    -0.142054601022E+03   -0.12196E-01   -0.14303E-01  6976   0.168E+00    0.778E-01
DAV:   4    -0.142055082420E+03   -0.48140E-03   -0.19512E-02  5816   0.141E+00    0.710E-01
DAV:   5    -0.142053381551E+03    0.17009E-02   -0.69470E-03  5684   0.979E-01    0.595E-01
DAV:   6    -0.142053016159E+03    0.36539E-03   -0.12376E-03  6484   0.372E-01    0.484E-01
DAV:   7    -0.142053172033E+03   -0.15587E-03   -0.10167E-03  5388   0.329E-01    0.146E-01
DAV:   8    -0.142053222770E+03   -0.50737E-04   -0.91751E-04  6696   0.231E-01    0.751E-02
DAV:   9    -0.142053229604E+03   -0.68344E-05   -0.18318E-04  6664   0.888E-02    0.681E-02
DAV:  10    -0.142053237701E+03   -0.80972E-05   -0.43752E-05  4632   0.342E-02
  50 F= -.15561801E+03 E0= -.15557895E+03  d E =-.169971E-01
       N       E                     dE             d eps       ncg     rms          rms(c)
DAV:   1    -0.140790724839E+03    0.12625E+01   -0.26702E+01  7172   0.703E+01    0.424E+00
DAV:   2    -0.142041321058E+03   -0.12506E+01   -0.12812E+01  5368   0.811E+00    0.189E+00
DAV:   3    -0.142082294089E+03   -0.40973E-01   -0.47876E-01  7800   0.397E+00    0.164E+00
DAV:   4    -0.142081925944E+03    0.36814E-03   -0.99755E-02  5908   0.355E+00    0.141E+00
DAV:   5    -0.142071835246E+03    0.10091E-01   -0.30711E-02  5824   0.206E+00    0.114E+00
DAV:   6    -0.142071110194E+03    0.72505E-03   -0.61278E-03  6392   0.553E-01    0.946E-01
DAV:   7    -0.142071308836E+03   -0.19864E-03   -0.21490E-03  6100   0.495E-01    0.522E-01
DAV:   8    -0.142071160844E+03    0.14799E-03   -0.36793E-03  6388   0.589E-01    0.158E-01
DAV:   9    -0.142071228936E+03   -0.68092E-04   -0.11618E-03  7068   0.227E-01    0.148E-01
DAV:  10    -0.142071233038E+03   -0.41028E-05   -0.28137E-04  5220   0.875E-02    0.114E-01
DAV:  11    -0.142071234201E+03   -0.11625E-05   -0.36522E-05  4012   0.719E-02
  51 F= -.15563292E+03 E0= -.15559345E+03  d E =-.319051E-01
       N       E                     dE             d eps       ncg     rms          rms(c)
DAV:   1    -0.141904127665E+03    0.16711E+00   -0.37036E+00  7012   0.259E+01    0.130E+00
DAV:   2    -0.142069612527E+03   -0.16548E+00   -0.16970E+00  5364   0.291E+00    0.558E-01
DAV:   3    -0.142073688261E+03   -0.40757E-02   -0.48250E-02  6940   0.756E-01    0.436E-01
DAV:   4    -0.142073838083E+03   -0.14982E-03   -0.44931E-03  5968   0.607E-01    0.401E-01
DAV:   5    -0.142073347250E+03    0.49083E-03   -0.17245E-03  5452   0.519E-01    0.348E-01
DAV:   6    -0.142073251894E+03    0.95356E-04   -0.44610E-04  5748   0.267E-01    0.266E-01
DAV:   7    -0.142073356708E+03   -0.10481E-03   -0.55160E-04  6120   0.232E-01    0.533E-02
DAV:   8    -0.142073378200E+03   -0.21492E-04   -0.27659E-04  6956   0.105E-01    0.420E-02
DAV:   9    -0.142073379099E+03   -0.89954E-06   -0.39892E-05  4860   0.380E-02
  52 F= -.15563401E+03 E0= -.15559444E+03  d E =-.329975E-01
       N       E                     dE             d eps       ncg     rms          rms(c)
DAV:   1    -0.141979887956E+03    0.93490E-01   -0.22311E+00  7116   0.198E+01    0.996E-01
DAV:   2    -0.142081341136E+03   -0.10145E+00   -0.10397E+00  5304   0.221E+00    0.448E-01
DAV:   3    -0.142084357448E+03   -0.30163E-02   -0.34583E-02  6820   0.753E-01    0.328E-01
DAV:   4    -0.142084538018E+03   -0.18057E-03   -0.44216E-03  5848   0.630E-01    0.320E-01
DAV:   5    -0.142084083398E+03    0.45462E-03   -0.14522E-03  5524   0.468E-01    0.262E-01
DAV:   6    -0.142084033551E+03    0.49847E-04   -0.28979E-04  6676   0.178E-01    0.210E-01
DAV:   7    -0.142084117230E+03   -0.83679E-04   -0.21616E-04  5432   0.135E-01    0.745E-02
DAV:   8    -0.142084158993E+03   -0.41763E-04   -0.16107E-04  6548   0.970E-02    0.340E-02
DAV:   9    -0.142084163611E+03   -0.46174E-05   -0.42177E-05  4716   0.384E-02
  53 F= -.15564367E+03 E0= -.15560390E+03  d E =-.965914E-02
       N       E                     dE             d eps       ncg     rms          rms(c)
DAV:   1    -0.141122164604E+03    0.96199E+00   -0.19710E+01  7060   0.596E+01    0.347E+00
DAV:   2    -0.142079660073E+03   -0.95750E+00   -0.98051E+00  5420   0.684E+00    0.146E+00
DAV:   3    -0.142102611620E+03   -0.22952E-01   -0.28880E-01  6840   0.212E+00    0.116E+00
DAV:   4    -0.142101481734E+03    0.11299E-02   -0.24825E-02  5720   0.117E+00    0.100E+00
DAV:   5    -0.142100625822E+03    0.85591E-03   -0.35353E-03  5768   0.540E-01    0.851E-01
DAV:   6    -0.142100820260E+03   -0.19444E-03   -0.26348E-03  5852   0.647E-01    0.753E-01
DAV:   7    -0.142100401339E+03    0.41892E-03   -0.36806E-03  7308   0.788E-01    0.332E-01
DAV:   8    -0.142100303552E+03    0.97787E-04   -0.23775E-03  7772   0.433E-01    0.111E-01
DAV:   9    -0.142100392591E+03   -0.89039E-04   -0.75077E-04  5392   0.113E-01    0.102E-01
DAV:  10    -0.142100388568E+03    0.40229E-05   -0.93965E-05  5184   0.632E-02
  54 F= -.15565680E+03 E0= -.15561647E+03  d E =-.227864E-01
       N       E                     dE             d eps       ncg     rms          rms(c)
DAV:   1    -0.142020022873E+03    0.80370E-01   -0.20394E+00  6844   0.183E+01    0.901E-01
DAV:   2    -0.142105143340E+03   -0.85120E-01   -0.86936E-01  5336   0.223E+00    0.551E-01
DAV:   3    -0.142116776245E+03   -0.11633E-01   -0.68713E-02  5912   0.269E+00    0.796E-01
DAV:   4    -0.142105685767E+03    0.11090E-01   -0.27179E-02  5616   0.211E+00    0.300E-01
DAV:   5    -0.142105740242E+03   -0.54475E-04   -0.32691E-03  7784   0.474E-01    0.256E-01
DAV:   6    -0.142105692248E+03    0.47994E-04   -0.10197E-03  5460   0.247E-01    0.178E-01
DAV:   7    -0.142105751268E+03   -0.59021E-04   -0.30070E-04  5748   0.159E-01    0.115E-01
DAV:   8    -0.142105796636E+03   -0.45368E-04   -0.18980E-04  5908   0.108E-01    0.598E-02
DAV:   9    -0.142105796854E+03   -0.21793E-06   -0.11289E-04  5540   0.103E-01    0.256E-02
DAV:  10    -0.142105801443E+03   -0.45890E-05   -0.37886E-05  4800   0.291E-02
  55 F= -.15566067E+03 E0= -.15562058E+03  d E =-.386661E-02
       N       E                     dE             d eps       ncg     rms          rms(c)
DAV:   1    -0.142103544732E+03    0.22521E-02   -0.52074E-02  6988   0.292E+00    0.142E-01
DAV:   2    -0.142105705041E+03   -0.21603E-02   -0.21920E-02  5304   0.385E-01    0.957E-02
DAV:   3    -0.142106122136E+03   -0.41710E-03   -0.24276E-03  5736   0.544E-01    0.150E-01
DAV:   4    -0.142105671620E+03    0.45052E-03   -0.86201E-04  5556   0.371E-01    0.457E-02
DAV:   5    -0.142105688844E+03   -0.17224E-04   -0.70153E-05  5180   0.553E-02    0.407E-02
DAV:   6    -0.142105694534E+03   -0.56905E-05   -0.22339E-05  3420   0.298E-02
  56 F= -.15566080E+03 E0= -.15562068E+03  d E =-.400385E-02
       N       E                     dE             d eps       ncg     rms          rms(c)
DAV:   1    -0.142074656851E+03    0.31032E-01   -0.79575E-01  7224   0.120E+01    0.568E-01
DAV:   2    -0.142109435321E+03   -0.34778E-01   -0.35726E-01  5360   0.135E+00    0.248E-01
DAV:   3    -0.142110715727E+03   -0.12804E-02   -0.11367E-02  7440   0.595E-01    0.217E-01
DAV:   4    -0.142110423514E+03    0.29221E-03   -0.23060E-03  6012   0.542E-01    0.183E-01
DAV:   5    -0.142110268363E+03    0.15515E-03   -0.38354E-04  6520   0.222E-01    0.137E-01
DAV:   6    -0.142110290843E+03   -0.22480E-04   -0.12718E-04  5492   0.847E-02    0.101E-01
DAV:   7    -0.142110347962E+03   -0.57119E-04   -0.70772E-05  5404   0.841E-02    0.359E-02
DAV:   8    -0.142110359226E+03   -0.11264E-04   -0.37175E-05  4392   0.415E-02    0.150E-02
DAV:   9    -0.142110360923E+03   -0.16965E-05   -0.10558E-05  3084   0.243E-02
[...]
DAV:   4    -0.142142293472E+03    0.12508E-03   -0.66204E-04  5664   0.305E-01    0.765E-02
DAV:   5    -0.142142266753E+03    0.26719E-04   -0.10780E-04  4096   0.126E-01    0.579E-02
DAV:   6    -0.142142269966E+03   -0.32132E-05   -0.43700E-05  4412   0.520E-02
  84 F= -.15568544E+03 E0= -.15564539E+03  d E =-.260855E-03
       N       E                     dE             d eps       ncg     rms          rms(c)
DAV:   1    -0.142122889737E+03    0.19377E-01   -0.44696E-01  6888   0.904E+00    0.398E-01
DAV:   2    -0.142141727794E+03   -0.18838E-01   -0.19287E-01  5220   0.990E-01    0.200E-01
DAV:   3    -0.142142245519E+03   -0.51772E-03   -0.61758E-03  6256   0.343E-01    0.147E-01
DAV:   4    -0.142142268890E+03   -0.23371E-04   -0.81330E-04  5736   0.287E-01    0.141E-01
DAV:   5    -0.142142180607E+03    0.88282E-04   -0.28011E-04  5416   0.206E-01    0.114E-01
DAV:   6    -0.142142181367E+03   -0.75958E-06   -0.80195E-05  3916   0.115E-01
  85 F= -.15568553E+03 E0= -.15564562E+03  d E =-.349637E-03
       N       E                     dE             d eps       ncg     rms          rms(c)
DAV:   1    -0.142140108792E+03    0.20718E-02   -0.66334E-02  6596   0.273E+00    0.143E-01
DAV:   2    -0.142142502536E+03   -0.23937E-02   -0.22272E-02  6304   0.540E-01    0.172E-01
DAV:   3    -0.142142670239E+03   -0.16770E-03   -0.49905E-03  6540   0.757E-01    0.160E-01
DAV:   4    -0.142142186130E+03    0.48411E-03   -0.12518E-03  5460   0.451E-01    0.595E-02
DAV:   5    -0.142142189049E+03   -0.29198E-05   -0.15986E-04  5916   0.101E-01    0.484E-02
DAV:   6    -0.142142187580E+03    0.14698E-05   -0.58230E-05  4756   0.449E-02
  86 F= -.15568584E+03 E0= -.15564579E+03  d E =-.314524E-03
       N       E                     dE             d eps       ncg     rms          rms(c)
DAV:   1    -0.142142188886E+03    0.16307E-06   -0.26607E-03  7104   0.534E-01    0.323E-02
DAV:   2    -0.142142274005E+03   -0.85119E-04   -0.88763E-04  5396   0.870E-02    0.221E-02
DAV:   3    -0.142142287690E+03   -0.13685E-04   -0.76686E-05  4056   0.971E-02    0.243E-02
DAV:   4    -0.142142278776E+03    0.89139E-05   -0.50197E-05  3320   0.873E-02    0.155E-02
DAV:   5    -0.142142276236E+03    0.25399E-05   -0.77872E-06  3088   0.319E-02
  87 F= -.15568587E+03 E0= -.15564581E+03  d E =-.342222E-03
       N       E                     dE             d eps       ncg     rms          rms(c)
DAV:   1    -0.142138138765E+03    0.41400E-02   -0.87223E-02  7100   0.397E+00    0.186E-01
DAV:   2    -0.142142005391E+03   -0.38666E-02   -0.39490E-02  5272   0.457E-01    0.100E-01
DAV:   3    -0.142142384495E+03   -0.37910E-03   -0.23277E-03  5608   0.445E-01    0.130E-01
DAV:   4    -0.142142100116E+03    0.28438E-03   -0.91600E-04  5672   0.375E-01    0.636E-02
DAV:   5    -0.142142083727E+03    0.16389E-04   -0.75544E-05  4152   0.979E-02    0.455E-02
DAV:   6    -0.142142086729E+03   -0.30017E-05   -0.36776E-05  4512   0.309E-02
  88 F= -.15568616E+03 E0= -.15564610E+03  d E =-.290838E-03
       N       E                     dE             d eps       ncg     rms          rms(c)
DAV:   1    -0.142123523195E+03    0.18561E-01   -0.38881E-01  7328   0.840E+00    0.373E-01
DAV:   2    -0.142140831060E+03   -0.17308E-01   -0.17667E-01  5280   0.928E-01    0.193E-01
DAV:   3    -0.142141341140E+03   -0.51008E-03   -0.59117E-03  5972   0.367E-01    0.147E-01
DAV:   4    -0.142141402366E+03   -0.61225E-04   -0.13240E-03  5772   0.402E-01    0.152E-01
DAV:   5    -0.142141218777E+03    0.18359E-03   -0.38618E-04  6128   0.242E-01    0.107E-01
DAV:   6    -0.142141221198E+03   -0.24205E-05   -0.86356E-05  5664   0.764E-02
  89 F= -.15568632E+03 E0= -.15564622E+03  d E =-.451729E-03
       N       E                     dE             d eps       ncg     rms          rms(c)
DAV:   1    -0.142139887587E+03    0.13312E-02   -0.39347E-02  6736   0.240E+00    0.112E-01
DAV:   2    -0.142141434745E+03   -0.15472E-02   -0.13951E-02  6532   0.454E-01    0.136E-01
DAV:   3    -0.142141529122E+03   -0.94377E-04   -0.31998E-03  6760   0.621E-01    0.129E-01
DAV:   4    -0.142141210937E+03    0.31818E-03   -0.68964E-04  5564   0.330E-01    0.465E-02
DAV:   5    -0.142141224112E+03   -0.13175E-04   -0.10331E-04  5432   0.664E-02    0.410E-02
DAV:   6    -0.142141225874E+03   -0.17624E-05   -0.30608E-05  4200   0.396E-02
  90 F= -.15568641E+03 E0= -.15564641E+03  d E =-.932758E-04
       N       E                     dE             d eps       ncg     rms          rms(c)
DAV:   1    -0.142141157650E+03    0.66462E-04   -0.35244E-03  7144   0.703E-01    0.378E-02
DAV:   2    -0.142141297583E+03   -0.13993E-03   -0.12546E-03  6568   0.149E-01    0.401E-02
DAV:   3    -0.142141320984E+03   -0.23401E-04   -0.31006E-04  5708   0.206E-01    0.420E-02
DAV:   4    -0.142141276303E+03    0.44681E-04   -0.94308E-05  3208   0.121E-01    0.118E-02
DAV:   5    -0.142141281601E+03   -0.52981E-05   -0.81442E-06  3056   0.189E-02
  91 F= -.15568644E+03 E0= -.15564645E+03  d E =-.122615E-03
       N       E                     dE             d eps       ncg     rms          rms(c)
DAV:   1    -0.142140474015E+03    0.80229E-03   -0.20761E-02  6932   0.198E+00    0.930E-02
DAV:   2    -0.142141358328E+03   -0.88431E-03   -0.90689E-03  5300   0.225E-01    0.471E-02
DAV:   3    -0.142141444790E+03   -0.86462E-04   -0.51908E-04  5520   0.211E-01    0.602E-02
DAV:   4    -0.142141381099E+03    0.63691E-04   -0.19785E-04  4036   0.174E-01    0.287E-02
DAV:   5    -0.142141379088E+03    0.20115E-05   -0.15207E-05  3040   0.452E-02
  92 F= -.15568655E+03 E0= -.15564654E+03  d E =-.105653E-03
       N       E                     dE             d eps       ncg     rms          rms(c)
DAV:   1    -0.142133303211E+03    0.80779E-02   -0.18745E-01  7104   0.595E+00    0.253E-01
DAV:   2    -0.142141425968E+03   -0.81228E-02   -0.82503E-02  5256   0.659E-01    0.143E-01
DAV:   3    -0.142141878081E+03   -0.45211E-03   -0.35767E-03  5556   0.476E-01    0.147E-01
DAV:   4    -0.142141641867E+03    0.23621E-03   -0.10987E-03  5756   0.399E-01    0.976E-02
DAV:   5    -0.142141598225E+03    0.43643E-04   -0.13279E-04  4700   0.134E-01    0.752E-02
DAV:   6    -0.142141601022E+03   -0.27968E-05   -0.55162E-05  4808   0.467E-02
  93 F= -.15568680E+03 E0= -.15564689E+03  d E =-.354458E-03
       N       E                     dE             d eps       ncg     rms          rms(c)
DAV:   1    -0.142108484471E+03    0.33114E-01   -0.74872E-01  6892   0.119E+01    0.513E-01
DAV:   2    -0.142140935305E+03   -0.32451E-01   -0.33029E-01  5280   0.129E+00    0.261E-01
DAV:   3    -0.142141761210E+03   -0.82590E-03   -0.10348E-02  6148   0.414E-01    0.185E-01
DAV:   4    -0.142141777094E+03   -0.15883E-04   -0.10036E-03  5932   0.258E-01    0.176E-01
DAV:   5    -0.142141720236E+03    0.56858E-04   -0.28298E-04  5660   0.196E-01    0.151E-01
DAV:   6    -0.142141697237E+03    0.22998E-04   -0.11433E-04  4192   0.137E-01    0.117E-01
DAV:   7    -0.142141704694E+03   -0.74571E-05   -0.11870E-04  6264   0.129E-01    0.318E-02
DAV:   8    -0.142141713066E+03   -0.83718E-05   -0.65970E-05  5692   0.560E-02
  94 F= -.15568697E+03 E0= -.15564719E+03  d E =-.530508E-03
       N       E                     dE             d eps       ncg     rms          rms(c)
DAV:   1    -0.142140813154E+03    0.89154E-03   -0.22895E-02  6864   0.205E+00    0.940E-02
DAV:   2    -0.142141776014E+03   -0.96286E-03   -0.98111E-03  5260   0.240E-01    0.504E-02
DAV:   3    -0.142141872679E+03   -0.96665E-04   -0.59809E-04  5612   0.231E-01    0.690E-02
DAV:   4    -0.142141792171E+03    0.80507E-04   -0.20386E-04  4108   0.175E-01    0.297E-02
DAV:   5    -0.142141794542E+03   -0.23708E-05   -0.15347E-05  3100   0.417E-02
  95 F= -.15568712E+03 E0= -.15564735E+03  d E =-.150700E-03
       N       E                     dE             d eps       ncg     rms          rms(c)
DAV:   1    -0.142135776340E+03    0.60158E-02   -0.14183E-01  7032   0.512E+00    0.216E-01
DAV:   2    -0.142141682157E+03   -0.59058E-02   -0.59690E-02  5264   0.592E-01    0.135E-01
DAV:   3    -0.142142344563E+03   -0.66241E-03   -0.41670E-03  5636   0.643E-01    0.189E-01
DAV:   4    -0.142141743143E+03    0.60142E-03   -0.14502E-03  5608   0.472E-01    0.790E-02
DAV:   5    -0.142141751846E+03   -0.87031E-05   -0.11812E-04  5996   0.937E-02    0.673E-02
DAV:   6    -0.142141753562E+03   -0.17158E-05   -0.46606E-05  4728   0.513E-02
  96 F= -.15568725E+03 E0= -.15564742E+03  d E =-.282300E-03
       N       E                     dE             d eps       ncg     rms          rms(c)
DAV:   1    -0.142140970187E+03    0.78166E-03   -0.17000E-02  7308   0.181E+00    0.691E-02
DAV:   2    -0.142141717776E+03   -0.74759E-03   -0.73598E-03  5312   0.238E-01    0.588E-02
DAV:   3    -0.142141813741E+03   -0.95965E-04   -0.70571E-04  5696   0.292E-01    0.758E-02
DAV:   4    -0.142141703896E+03    0.10985E-03   -0.20774E-04  3988   0.178E-01    0.309E-02
DAV:   5    -0.142141709835E+03   -0.59393E-05   -0.16147E-05  3132   0.262E-02
  97 F= -.15568738E+03 E0= -.15564758E+03  d E =-.122580E-03
       N       E                     dE             d eps       ncg     rms          rms(c)
DAV:   1    -0.142134818026E+03    0.68859E-02   -0.15153E-01  7068   0.538E+00    0.220E-01
DAV:   2    -0.142141377521E+03   -0.65595E-02   -0.66622E-02  5312   0.587E-01    0.119E-01
DAV:   3    -0.142141629224E+03   -0.25170E-03   -0.23549E-03  5748   0.317E-01    0.109E-01
DAV:   4    -0.142141544470E+03    0.84754E-04   -0.44340E-04  5756   0.236E-01    0.847E-02
DAV:   5    -0.142141530530E+03    0.13940E-04   -0.66494E-05  3536   0.923E-02    0.702E-02
DAV:   6    -0.142141532279E+03   -0.17490E-05   -0.31593E-05  4144   0.421E-02
  98 F= -.15568770E+03 E0= -.15564787E+03  d E =-.444807E-03
       N       E                     dE             d eps       ncg     rms          rms(c)
DAV:   1    -0.142114288649E+03    0.27242E-01   -0.60690E-01  6948   0.108E+01    0.470E-01
DAV:   2    -0.142140435384E+03   -0.26147E-01   -0.26526E-01  5308   0.120E+00    0.245E-01
DAV:   3    -0.142142469024E+03   -0.20336E-02   -0.13301E-02  5592   0.102E+00    0.301E-01
DAV:   4    -0.142141070761E+03    0.13983E-02   -0.42689E-03  5780   0.792E-01    0.158E-01
DAV:   5    -0.142141033419E+03    0.37342E-04   -0.42953E-04  8256   0.188E-01    0.126E-01
DAV:   6    -0.142141032080E+03    0.13396E-05   -0.12984E-04  5212   0.640E-02    0.104E-01
DAV:   7    -0.142141034738E+03   -0.26583E-05   -0.33011E-05  3772   0.584E-02
  99 F= -.15568821E+03 E0= -.15564844E+03  d E =-.950493E-03
       N       E                     dE             d eps       ncg     rms          rms(c)
DAV:   1    -0.142031710600E+03    0.10932E+00   -0.24205E+00  7084   0.216E+01    0.971E-01
DAV:   2    -0.142136857980E+03   -0.10515E+00   -0.10706E+00  5408   0.233E+00    0.421E-01
DAV:   3    -0.142139673608E+03   -0.28156E-02   -0.31985E-02  7368   0.617E-01    0.319E-01
DAV:   4    -0.142139999793E+03   -0.32618E-03   -0.37829E-03  5896   0.582E-01    0.319E-01
DAV:   5    -0.142139492680E+03    0.50711E-03   -0.11248E-03  5536   0.416E-01    0.254E-01
DAV:   6    -0.142139470276E+03    0.22404E-04   -0.21223E-04  6720   0.159E-01    0.201E-01
DAV:   7    -0.142139466033E+03    0.42424E-05   -0.20654E-04  5468   0.174E-01    0.540E-02
DAV:   8    -0.142139476644E+03   -0.10611E-04   -0.18243E-04  7148   0.960E-02    0.296E-02
DAV:   9    -0.142139482935E+03   -0.62914E-05   -0.43283E-05  5020   0.323E-02
 100 F= -.15568868E+03 E0= -.15564895E+03  d E =-.142064E-02
       N       E                     dE             d eps       ncg     rms          rms(c)
DAV:   1    -0.142132034928E+03    0.74417E-02   -0.17309E-01  7004   0.565E+00    0.254E-01
DAV:   2    -0.142139153902E+03   -0.71190E-02   -0.72408E-02  5344   0.646E-01    0.138E-01
DAV:   3    -0.142139869173E+03   -0.71527E-03   -0.45252E-03  5668   0.634E-01    0.187E-01
DAV:   4    -0.142139302872E+03    0.56630E-03   -0.15843E-03  5576   0.492E-01    0.819E-02
DAV:   5    -0.142139299016E+03    0.38559E-05   -0.15399E-04  5976   0.127E-01    0.660E-02
DAV:   6    -0.142139299100E+03   -0.83644E-07   -0.62203E-05  4776   0.625E-02
 101 F= -.15568888E+03 E0= -.15564926E+03  d E =-.203508E-03
       N       E                     dE             d eps       ncg     rms          rms(c)
DAV:   1    -0.142139241591E+03    0.57425E-04   -0.85535E-04  8052   0.409E-01    0.176E-02
DAV:   2    -0.142139303869E+03   -0.62278E-04   -0.37881E-04  7008   0.131E-01    0.420E-02
DAV:   3    -0.142139274549E+03    0.29320E-04   -0.11898E-04  4932   0.119E-01    0.193E-02
DAV:   4    -0.142139275983E+03   -0.14342E-05   -0.10895E-05  3088   0.166E-02    0.160E-02
DAV:   5    -0.142139276706E+03   -0.72306E-06   -0.27877E-06  2960   0.134E-02
 102 F= -.15568888E+03 E0= -.15564923E+03  d E =-.207590E-03
       N       E                     dE             d eps       ncg     rms          rms(c)
DAV:   1    -0.142134618139E+03    0.46578E-02   -0.10786E-01  6928   0.460E+00    0.200E-01
DAV:   2    -0.142139262433E+03   -0.46443E-02   -0.47378E-02  5300   0.497E-01    0.912E-02
DAV:   3    -0.142139400854E+03   -0.13842E-03   -0.15328E-03  6036   0.169E-01    0.684E-02
DAV:   4    -0.142139400979E+03   -0.12474E-06   -0.15687E-04  4604   0.121E-01    0.639E-02
DAV:   5    -0.142139389299E+03    0.11680E-04   -0.57864E-05  3292   0.957E-02    0.559E-02
DAV:   6    -0.142139385545E+03    0.37536E-05   -0.95225E-06  3056   0.350E-02
 103 F= -.15568907E+03 E0= -.15564948E+03  d E =-.186257E-03
       N       E                     dE             d eps       ncg     rms          rms(c)
DAV:   1    -0.142096660700E+03    0.42729E-01   -0.97096E-01  7056   0.138E+01    0.601E-01
DAV:   2    -0.142138525968E+03   -0.41865E-01   -0.42513E-01  5312   0.151E+00    0.298E-01
DAV:   3    -0.142140768842E+03   -0.22429E-02   -0.17723E-02  5704   0.101E+00    0.308E-01
DAV:   4    -0.142139740934E+03    0.10279E-02   -0.47532E-03  5872   0.818E-01    0.204E-01
DAV:   5    -0.142139574923E+03    0.16601E-03   -0.71768E-04  8304   0.269E-01    0.161E-01
DAV:   6    -0.142139566788E+03    0.81348E-05   -0.17679E-04  5408   0.777E-02    0.132E-01
DAV:   7    -0.142139568665E+03   -0.18774E-05   -0.42437E-05  4356   0.642E-02
 104 F= -.15568949E+03 E0= -.15564998E+03  d E =-.605693E-03
       N       E                     dE             d eps       ncg     rms          rms(c)
DAV:   1    -0.141966352467E+03    0.17321E+00   -0.38719E+00  7056   0.276E+01    0.125E+00
DAV:   2    -0.142134959836E+03   -0.16861E+00   -0.17146E+00  5352   0.298E+00    0.562E-01
DAV:   3    -0.142140752523E+03   -0.57927E-02   -0.59160E-02  8064   0.131E+00    0.484E-01
DAV:   4    -0.142140457655E+03    0.29487E-03   -0.11165E-02  5716   0.120E+00    0.437E-01
DAV:   5    -0.142139335574E+03    0.11221E-02   -0.25801E-03  5756   0.613E-01    0.334E-01
DAV:   6    -0.142139291534E+03    0.44039E-04   -0.64369E-04  6488   0.172E-01    0.270E-01
DAV:   7    -0.142139267365E+03    0.24169E-04   -0.23635E-04  5976   0.171E-01    0.134E-01
DAV:   8    -0.142139250864E+03    0.16501E-04   -0.32060E-04  6476   0.171E-01    0.392E-02
DAV:   9    -0.142139263514E+03   -0.12649E-04   -0.11188E-04  6440   0.641E-02    0.366E-02
DAV:  10    -0.142139263760E+03   -0.24639E-06   -0.25337E-05  3464   0.294E-02
 105 F= -.15568967E+03 E0= -.15565036E+03  d E =-.791383E-03
       N       E                     dE             d eps       ncg     rms          rms(c)
DAV:   1    -0.142136555518E+03    0.27080E-02   -0.63370E-02  6944   0.348E+00    0.153E-01
DAV:   2    -0.142139270669E+03   -0.27152E-02   -0.27568E-02  5268   0.387E-01    0.807E-02
DAV:   3    -0.142139466961E+03   -0.19629E-03   -0.13851E-03  5624   0.318E-01    0.972E-02
DAV:   4    -0.142139332904E+03    0.13406E-03   -0.40031E-04  5484   0.240E-01    0.513E-02
DAV:   5    -0.142139333221E+03   -0.31732E-06   -0.34917E-05  3428   0.677E-02
 106 F= -.15568983E+03 E0= -.15565055E+03  d E =-.152743E-03
       N       E                     dE             d eps       ncg     rms          rms(c)
DAV:   1    -0.142120195942E+03    0.19137E-01   -0.43740E-01  7092   0.919E+00    0.382E-01
DAV:   2    -0.142138885440E+03   -0.18689E-01   -0.18928E-01  5276   0.100E+00    0.211E-01
DAV:   3    -0.142140125706E+03   -0.12403E-02   -0.91203E-03  5692   0.801E-01    0.250E-01
DAV:   4    -0.142139304009E+03    0.82170E-03   -0.25150E-03  5688   0.604E-01    0.140E-01
DAV:   5    -0.142139287487E+03    0.16521E-04   -0.26214E-04  7620   0.152E-01    0.118E-01
DAV:   6    -0.142139279466E+03    0.80208E-05   -0.91037E-05  5032   0.730E-02
 107 F= -.15568999E+03 E0= -.15565064E+03  d E =-.318532E-03
       N       E                     dE             d eps       ncg     rms          rms(c)
DAV:   1    -0.142139152661E+03    0.13483E-03   -0.32191E-03  8228   0.758E-01    0.593E-02
DAV:   2    -0.142139355204E+03   -0.20254E-03   -0.15244E-03  6936   0.204E-01    0.664E-02
DAV:   3    -0.142139355591E+03   -0.38670E-06   -0.59557E-04  6556   0.285E-01    0.598E-02
DAV:   4    -0.142139296114E+03    0.59477E-04   -0.13199E-04  3352   0.142E-01    0.211E-02
DAV:   5    -0.142139306339E+03   -0.10225E-04   -0.24387E-05  3496   0.471E-02    0.228E-02
DAV:   6    -0.142139304250E+03    0.20888E-05   -0.18995E-05  3096   0.420E-02
 108 F= -.15569008E+03 E0= -.15565075E+03  d E =-.854177E-04
       N       E                     dE             d eps       ncg     rms          rms(c)
DAV:   1    -0.142138014557E+03    0.12918E-02   -0.28400E-02  7336   0.223E+00    0.104E-01
DAV:   2    -0.142139272391E+03   -0.12578E-02   -0.12967E-02  5228   0.252E-01    0.520E-02
DAV:   3    -0.142139319887E+03   -0.47496E-04   -0.46162E-04  5644   0.131E-01    0.431E-02
DAV:   4    -0.142139312791E+03    0.70958E-05   -0.10357E-04  3800   0.117E-01    0.366E-02
DAV:   5    -0.142139304620E+03    0.81708E-05   -0.35597E-05  3012   0.725E-02
 109 F= -.15569026E+03 E0= -.15565092E+03  d E =-.268980E-03
       N       E                     dE             d eps       ncg     rms          rms(c)
DAV:   1    -0.142134014294E+03    0.52985E-02   -0.11342E-01  7296   0.448E+00    0.193E-01
DAV:   2    -0.142139030822E+03   -0.50165E-02   -0.51201E-02  5236   0.495E-01    0.117E-01
DAV:   3    -0.142139199659E+03   -0.16884E-03   -0.18637E-03  5556   0.258E-01    0.928E-02
DAV:   4    -0.142139189395E+03    0.10264E-04   -0.53374E-04  5532   0.266E-01    0.880E-02
DAV:   5    -0.142139129630E+03    0.59766E-04   -0.13858E-04  3632   0.150E-01    0.633E-02
DAV:   6    -0.142139132786E+03   -0.31564E-05   -0.35050E-05  4052   0.512E-02
 110 F= -.15569046E+03 E0= -.15565104E+03  d E =-.469209E-03
       N       E                     dE             d eps       ncg     rms          rms(c)
DAV:   1    -0.142138798299E+03    0.33133E-03   -0.94124E-03  6644   0.118E+00    0.441E-02
DAV:   2    -0.142139214872E+03   -0.41657E-03   -0.35364E-03  6408   0.237E-01    0.721E-02
DAV:   3    -0.142139173340E+03    0.41532E-04   -0.69350E-04  6592   0.282E-01    0.522E-02
DAV:   4    -0.142139135709E+03    0.37631E-04   -0.79503E-05  3864   0.104E-01    0.278E-02
DAV:   5    -0.142139138434E+03   -0.27251E-05   -0.20244E-05  3456   0.220E-02
 111 F= -.15569052E+03 E0= -.15565111E+03  d E =-.613870E-04
       N       E                     dE             d eps       ncg     rms          rms(c)
DAV:   1    -0.142139139895E+03   -0.41857E-05   -0.95772E-06  3008   0.265E-02    0.133E-02
DAV:   2    -0.142139141548E+03   -0.16537E-05   -0.41337E-06  3152   0.121E-02    0.100E-02
DAV:   3    -0.142139143280E+03   -0.17321E-05   -0.63369E-06  3064   0.256E-02    0.105E-02
DAV:   4    -0.142139144361E+03   -0.10807E-05   -0.90986E-06  2944   0.368E-02    0.955E-03
DAV:   5    -0.142139144442E+03   -0.81054E-07   -0.73370E-06  3008   0.347E-02
 112 F= -.15569053E+03 E0= -.15565115E+03  d E =-.679055E-04
