PROCAR new format
# of k-points:    7         # of bands: 372         # of ions:  38

 k-point    1 :    0.00000000 0.00000000 0.00000000     weight = 0.06250000

band   1 # energy  -71.20660159 # occ.  2.00000000
 
ion      s      p      d    tot
  1  0.000  0.000  0.000  0.000
  2  0.000  0.000  0.000  0.000
  3  0.000  0.000  0.000  0.000
  4  0.000  0.000  0.000  0.000
  5  0.000  0.000  0.000  0.000
  6  0.000  0.000  0.000  0.000
  7  0.000  0.000  0.000  0.000
  8  0.000  0.000  0.000  0.000
  9  0.000  0.000  0.000  0.000
 10  0.000  0.000  0.000  0.000
 11  0.000  0.000  0.000  0.000
 12  0.000  0.000  0.000  0.000
 13  0.000  0.000  0.000  0.000
 14  0.000  0.000  0.000  0.000
 15  0.000  0.000  0.000  0.000
 16  0.000  0.000  0.000  0.000
 17  0.000  0.000  0.000  0.000
 18  0.000  0.001  0.000  0.001
 19  0.000  0.000  0.000  0.000
 20  0.000  0.000  0.000  0.000
 21  0.000  0.000  0.000  0.000
 22  0.000  0.000  0.000  0.000
 23  0.000  0.000  0.000  0.000
 24  0.000  0.010  0.000  0.010
 25  0.000  0.000  0.000  0.000
 26  0.000  0.010  0.000  0.010
 27  0.000  0.000  0.000  0.000
 28  0.000  0.007  0.000  0.007
 29  0.000  0.480  0.000  0.480
 30  0.000  0.000  0.000  0.000
 31  0.000  0.480  0.000  0.480
 32  0.000  0.007  0.000  0.007
 33  0.000  0.000  0.000  0.000
 34  0.000  0.000  0.000  0.000
 35  0.000  0.000  0.000  0.000
 36  0.000  0.000  0.000  0.000
 37  0.000  0.000  0.000  0.000
 38  0.000  0.000  0.000  0.000
tot  0.000  0.996  0.000  0.996
 
band   2 # energy  -71.19789418 # occ.  2.00000000
 
ion      s      p      d    tot
  1  0.000  0.000  0.000  0.000
  2  0.000  0.000  0.000  0.000
  3  0.000  0.000  0.000  0.000
  4  0.000  0.000  0.000  0.000
  5  0.000  0.000  0.000  0.000
  6  0.000  0.000  0.000  0.000
  7  0.000  0.000  0.000  0.000
  8  0.000  0.000  0.000  0.000
  9  0.000  0.000  0.000  0.000
 10  0.000  0.000  0.000  0.000
 11  0.000  0.000  0.000  0.000
 12  0.000  0.000  0.000  0.000
 13  0.000  0.000  0.000  0.000
 14  0.000  0.000  0.000  0.000
 15  0.000  0.000  0.000  0.000
 16  0.000  0.000  0.000  0.000
 17  0.000  0.000  0.000  0.000
 18  0.000  0.000  0.000  0.000
 19  0.000  0.000  0.000  0.000
 20  0.000  0.000  0.000  0.000
 21  0.000  0.000  0.000  0.000
 22  0.000  0.000  0.000  0.000
 23  0.000  0.000  0.000  0.000
 24  0.000  0.012  0.000  0.012
 25  0.000  0.000  0.000  0.000
 26  0.000  0.012  0.000  0.012
 27  0.000  0.000  0.000  0.000
 28  0.000  0.000  0.000  0.000
 29  0.000  0.482  0.000  0.482
 30  0.000  0.000  0.000  0.000
 31  0.000  0.482  0.000  0.482
 32  0.000  0.000  0.000  0.000
 33  0.000  0.000  0.000  0.000
 34  0.000  0.000  0.000  0.000
 35  0.000  0.000  0.000  0.000
 36  0.000  0.007  0.000  0.007
 37  0.000  0.000  0.000  0.000
 38  0.000  0.000  0.000  0.000
tot  0.000  0.997  0.000  0.997
 
band   3 # energy  -71.16018511 # occ.  2.00000000
 
ion      s      p      d    tot
  1  0.000  0.000  0.000  0.000
  2  0.000  0.000  0.000  0.000
  3  0.000  0.000  0.000  0.000
  4  0.000  0.000  0.000  0.000
  5  0.000  0.000  0.000  0.000
  6  0.000  0.000  0.000  0.000
  7  0.000  0.000  0.000  0.000
  8  0.000  0.000  0.000  0.000
  9  0.000  0.000  0.000  0.000
 10  0.000  0.000  0.000  0.000
 11  0.000  0.000  0.000  0.000
 12  0.000  0.000  0.000  0.000
 13  0.000  0.000  0.000  0.000
 14  0.000  0.000  0.000  0.000
 15  0.000  0.000  0.000  0.000
 16  0.000  0.000  0.000  0.000
 17  0.000  0.000  0.000  0.000
 18  0.000  0.001  0.000  0.001
 19  0.000  0.001  0.000  0.001
 20  0.000  0.000  0.000  0.000
 21  0.000  0.001  0.000  0.001
 22  0.000  0.000  0.000  0.000
 23  0.000  0.000  0.000  0.000
 24  0.000  0.003  0.000  0.003
 25  0.000  0.001  0.000  0.001
 26  0.000  0.003  0.000  0.003
 27  0.000  0.000  0.000  0.000
 28  0.000  0.036  0.000  0.036
 29  0.000  0.445  0.000  0.445
 30  0.000  0.000  0.000  0.000
 31  0.000  0.445  0.000  0.445
 32  0.000  0.057  0.000  0.058
 33  0.000  0.000  0.000  0.000
 34  0.000  0.000  0.000  0.000
 35  0.000  0.000  0.000  0.000
 36  0.000  0.000  0.000  0.000
 37  0.000  0.000  0.000  0.000
 38  0.000  0.000  0.000  0.000
tot  0.000  0.996  0.000  0.996
 
band   4 # energy  -71.15510539 # occ.  2.00000000
 
ion      s      p      d    tot
  1  0.000  0.000  0.000  0.000
  2  0.000  0.000  0.000  0.000
  3  0.000  0.000  0.000  0.000
  4  0.000  0.000  0.000  0.000
  5  0.000  0.000  0.000  0.000
  6  0.000  0.000  0.000  0.000
  7  0.000  0.000  0.000  0.000
  8  0.000  0.000  0.000  0.000
  9  0.000  0.000  0.000  0.000
 10  0.000  0.000  0.000  0.000
 11  0.000  0.000  0.000  0.000
 12  0.000  0.000  0.000  0.000
 13  0.000  0.000  0.000  0.000
 14  0.000  0.000  0.000  0.000
 15  0.000  0.000  0.000  0.000
 16  0.000  0.000  0.000  0.000
 17  0.000  0.000  0.000  0.000
 18  0.000  0.000  0.000  0.000
 19  0.000  0.000  0.000  0.000
 20  0.000  0.000  0.000  0.000
 21  0.000  0.001  0.000  0.001
 22  0.000  0.000  0.000  0.000
 23  0.000  0.000  0.000  0.000
 24  0.000  0.003  0.000  0.003
 25  0.000  0.001  0.000  0.001
 26  0.000  0.003  0.000  0.003
 27  0.000  0.000  0.000  0.000
 28  0.000  0.004  0.000  0.004
 29  0.000  0.488  0.000  0.488
 30  0.000  0.001  0.000  0.001
 31  0.000  0.488  0.000  0.488
 32  0.000  0.005  0.000  0.005
 33  0.000  0.001  0.000  0.001
 34  0.000  0.001  0.000  0.001
 35  0.000  0.001  0.000  0.001
 36  0.000  0.000  0.000  0.000
 37  0.000  0.000  0.000  0.000
 38  0.000  0.000  0.000  0.000
tot  0.000  0.997  0.000  0.997
 
band   5 # energy  -71.11904225 # occ.  2.00000000
 
ion      s      p      d    tot
  1  0.000  0.000  0.000  0.000
  2  0.000  0.000  0.000  0.000
  3  0.000  0.000  0.000  0.000
  4  0.000  0.000  0.000  0.000
  5  0.000  0.000  0.000  0.000
  6  0.000  0.000  0.000  0.000
  7  0.000  0.000  0.000  0.000
  8  0.000  0.000  0.000  0.000
  9  0.000  0.000  0.000  0.000
 10  0.000  0.000  0.000  0.000
 11  0.000  0.000  0.000  0.000
 12  0.000  0.000  0.000  0.000
 13  0.000  0.000  0.000  0.000
 14  0.000  0.000  0.000  0.000
 15  0.000  0.000  0.000  0.000
 16  0.000  0.000  0.000  0.000
 17  0.000  0.000  0.000  0.000
 18  0.000  0.016  0.000  0.016
 19  0.000  0.001  0.000  0.001
 20  0.000  0.000  0.000  0.000
 21  0.000  0.001  0.000  0.001
 22  0.000  0.000  0.000  0.000
 23  0.000  0.000  0.000  0.000
 24  0.000  0.014  0.000  0.014
 25  0.000  0.001  0.000  0.001
 26  0.000  0.014  0.000  0.014
 27  0.000  0.001  0.000  0.001
 28  0.000  0.476  0.000  0.476
 29  0.000  0.053  0.000  0.053
 30  0.000  0.001  0.000  0.001
 31  0.000  0.053  0.000  0.053
 32  0.000  0.362  0.000  0.362
 33  0.000  0.001  0.000  0.001
 34  0.000  0.001  0.000  0.001
 35  0.000  0.001  0.000  0.001
 36  0.000  0.000  0.000  0.000
 37  0.000  0.000  0.000  0.000
 38  0.000  0.000  0.000  0.000
tot  0.000  0.996  0.000  0.996
 
band   6 # energy  -71.11554600 # occ.  2.00000000
 
ion      s      p      d    tot
  1  0.000  0.000  0.000  0.000
  2  0.000  0.000  0.000  0.000
  3  0.000  0.000  0.000  0.000
  4  0.000  0.000  0.000  0.000
  5  0.000  0.000  0.000  0.000
  6  0.000  0.000  0.000  0.000
  7  0.000  0.000  0.000  0.000
  8  0.000  0.000  0.000  0.000
  9  0.000  0.000  0.000  0.000
 10  0.000  0.000  0.000  0.000
 11  0.000  0.000  0.000  0.000
 12  0.000  0.000  0.000  0.000
 13  0.000  0.000  0.000  0.000
 14  0.000  0.000  0.000  0.000
 15  0.000  0.001  0.000  0.001
 16  0.000  0.000  0.000  0.000
 17  0.000  0.001  0.000  0.001
 18  0.000  0.031  0.000  0.031
 19  0.000  0.001  0.000  0.001
 20  0.000  0.001  0.000  0.001
 21  0.000  0.000  0.000  0.000
 22  0.000  0.001  0.000  0.001
 23  0.000  0.000  0.000  0.000
 24  0.000  0.018  0.000  0.018
 25  0.000  0.000  0.000  0.000
 26  0.000  0.018  0.000  0.018
 27  0.000  0.000  0.000  0.000
 28  0.000  0.203  0.000  0.203
 29  0.000  0.078  0.000  0.078
 30  0.000  0.001  0.000  0.001
 31  0.000  0.078  0.000  0.078
 32  0.000  0.556  0.000  0.556
 33  0.000  0.002  0.000  0.002
 34  0.000  0.001  0.000  0.001
 35  0.000  0.002  0.000  0.002
 36  0.000  0.000  0.000  0.000
 37  0.000  0.000  0.000  0.000
 38  0.000  0.000  0.000  0.000
tot  0.000  0.997  0.000  0.997
 
band   7 # energy  -71.11172170 # occ.  2.00000000
 
ion      s      p      d    tot
  1  0.000  0.000  0.000  0.000
  2  0.000  0.000  0.000  0.000
  3  0.000  0.000  0.000  0.000
  4  0.000  0.000  0.000  0.000
  5  0.000  0.000  0.000  0.000
  6  0.000  0.000  0.000  0.000
  7  0.000  0.000  0.000  0.000
  8  0.000  0.000  0.000  0.000
  9  0.000  0.000  0.000  0.000
 10  0.000  0.000  0.000  0.000
 11  0.000  0.001  0.000  0.001
 12  0.000  0.001  0.000  0.001
 13  0.000  0.001  0.000  0.001
 14  0.000  0.000  0.000  0.000
 15  0.000  0.002  0.000  0.002
 16  0.000  0.001  0.000  0.001
 17  0.000  0.002  0.000  0.002
 18  0.000  0.168  0.000  0.168
 19  0.000  0.003  0.000  0.003
 20  0.000  0.000  0.000  0.000
 21  0.000  0.003  0.000  0.003
 22  0.000  0.000  0.000  0.000
 23  0.000  0.000  0.000  0.000
 24  0.000  0.059  0.000  0.059
 25  0.000  0.003  0.000  0.003
 26  0.000  0.059  0.000  0.059
 27  0.000  0.007  0.000  0.007
 28  0.000  0.263  0.000  0.263
 29  0.000  0.206  0.000  0.206
 30  0.000  0.001  0.000  0.001
 31  0.000  0.206  0.000  0.206
 32  0.000  0.007  0.000  0.007
 33  0.000  0.000  0.000  0.000
 34  0.000  0.001  0.000  0.001
 35  0.000  0.000  0.000  0.000
 36  0.000  0.000  0.000  0.000
 37  0.000  0.000  0.000  0.000
 38  0.000  0.000  0.000  0.000
tot  0.000  0.996  0.000  0.996
 
band   8 # energy  -71.10561886 # occ.  2.00000000
 
ion      s      p      d    tot
  1  0.000  0.000  0.000  0.000
  2  0.000  0.000  0.000  0.000
  3  0.000  0.000  0.000  0.000
  4  0.000  0.000  0.000  0.000
  5  0.000  0.000  0.000  0.000
  6  0.000  0.000  0.000  0.000
  7  0.000  0.000  0.000  0.000
  8  0.000  0.000  0.000  0.000
  9  0.000  0.000  0.000  0.000
 10  0.000  0.000  0.000  0.000
 11  0.000  0.001  0.000  0.001
 12  0.000  0.000  0.000  0.000
 13  0.000  0.001  0.000  0.001
 14  0.000  0.000  0.000  0.000
 15  0.000  0.001  0.000  0.001
 16  0.000  0.000  0.000  0.000
 17  0.000  0.001  0.000  0.001
 18  0.000  0.015  0.000  0.015
 19  0.000  0.005  0.000  0.005
 20  0.000  0.000  0.000  0.000
 21  0.000  0.004  0.000  0.004
 22  0.000  0.000  0.000  0.000
 23  0.000  0.000  0.000  0.000
 24  0.000  0.028  0.000  0.028
 25  0.000  0.004  0.000  0.004
 26  0.000  0.028  0.000  0.028
 27  0.000  0.000  0.000  0.000
 28  0.000  0.001  0.000  0.001
 29  0.000  0.451  0.000  0.451
 30  0.000  0.000  0.000  0.000
 31  0.000  0.451  0.000  0.451
 32  0.000  0.000  0.000  0.000
 33  0.000  0.000  0.000  0.000
 34  0.000  0.000  0.000  0.000
 35  0.000  0.000  0.000  0.000
 36  0.000  0.004  0.000  0.004
 37  0.000  0.000  0.000  0.000
 38  0.000  0.000  0.000  0.000
tot  0.000  0.997  0.000  0.997
 
band   9 # energy  -71.10158683 # occ.  2.00000000
 
ion      s      p      d    tot
  1  0.000  0.000  0.000  0.000
  2  0.000  0.000  0.000  0.000
  3  0.000  0.001  0.000  0.001
  4  0.000  0.000  0.000  0.000
  5  0.000  0.000  0.000  0.000
  6  0.000  0.000  0.000  0.000
  7  0.000  0.001  0.000  0.001
  8  0.000  0.000  0.000  0.000
  9  0.000  0.001  0.000  0.001
 10  0.000  0.000  0.000  0.000
 11  0.000  0.001  0.000  0.001
 12  0.000  0.000  0.000  0.000
 13  0.000  0.001  0.000  0.001
 14  0.000  0.000  0.000  0.000
 15  0.000  0.005  0.000  0.005
 16  0.000  0.000  0.000  0.000
 17  0.000  0.005  0.000  0.005
 18  0.000  0.472  0.000  0.472
 19  0.000  0.003  0.000  0.003
 20  0.000  0.000  0.000  0.000
 21  0.000  0.001  0.000  0.001
 22  0.000  0.000  0.000  0.000
 23  0.000  0.001  0.000  0.001
 24  0.000  0.049  0.000  0.049
 25  0.000  0.001  0.000  0.001
 26  0.000  0.049  0.000  0.049
 27  0.000  0.005  0.000  0.005
 28  0.000  0.004  0.000  0.004
 29  0.000  0.197  0.000  0.197
 30  0.000  0.000  0.000  0.000
 31  0.000  0.197  0.000  0.197
 32  0.000  0.001  0.000  0.001
 33  0.000  0.000  0.000  0.000
 34  0.000  0.000  0.000  0.000
 35  0.000  0.000  0.000  0.000
 36  0.000  0.000  0.000  0.000
 37  0.000  0.000  0.000  0.000
 38  0.000  0.000  0.000  0.000
tot  0.000  0.996  0.000  0.996
 
band  10 # energy  -71.08700029 # occ.  2.00000000
 
ion      s      p      d    tot
  1  0.000  0.000  0.000  0.000
  2  0.000  0.000  0.000  0.000
  3  0.000  0.001  0.000  0.001
  4  0.000  0.000  0.000  0.000
  5  0.000  0.000  0.000  0.000
  6  0.000  0.000  0.000  0.000
  7  0.000  0.001  0.000  0.001
  8  0.000  0.000  0.000  0.000
  9  0.000  0.000  0.000  0.000
 10  0.000  0.000  0.000  0.000
 11  0.000  0.034  0.000  0.034
 12  0.000  0.005  0.000  0.005
 13  0.000  0.034  0.000  0.034
 14  0.000  0.000  0.000  0.000
 15  0.000  0.022  0.000  0.022
 16  0.000  0.005  0.000  0.005
 17  0.000  0.022  0.000  0.022
 18  0.000  0.570  0.000  0.570
 19  0.000  0.000  0.000  0.000
 20  0.000  0.000  0.000  0.000
 21  0.000  0.000  0.000  0.000
 22  0.000  0.000  0.000  0.000
 23  0.000  0.000  0.000  0.000
 24  0.000  0.117  0.000  0.117
 25  0.000  0.000  0.000  0.000
 26  0.000  0.117  0.000  0.117
 27  0.000  0.000  0.000  0.000
 28  0.000  0.000  0.000  0.000
 29  0.000  0.033  0.000  0.033
 30  0.000  0.000  0.000  0.000
 31  0.000  0.033  0.000  0.033
 32  0.000  0.000  0.000  0.000
 33  0.000  0.000  0.000  0.000
 34  0.000  0.000  0.000  0.000
 35  0.000  0.000  0.000  0.000
 36  0.000  0.001  0.000  0.001
 37  0.000  0.000  0.000  0.000
 38  0.000  0.000  0.000  0.000
tot  0.000  0.996  0.000  0.996
 
band  11 # energy  -71.06842470 # occ.  2.00000000
 
ion      s      p      d    tot
  1  0.000  0.000  0.000  0.000
  2  0.000  0.000  0.000  0.000
  3  0.000  0.000  0.000  0.000
  4  0.000  0.000  0.000  0.000
  5  0.000  0.000  0.000  0.000
  6  0.000  0.000  0.000  0.000
  7  0.000  0.000  0.000  0.000
  8  0.000  0.000  0.000  0.000
  9  0.000  0.002  0.000  0.002
 10  0.000  0.000  0.000  0.000
 11  0.000  0.008  0.000  0.008
 12  0.000  0.013  0.000  0.013
 13  0.000  0.008  0.000  0.008
 14  0.000  0.011  0.000  0.011
 15  0.000  0.099  0.000  0.099
 16  0.000  0.013  0.000  0.013
 17  0.000  0.099  0.000  0.099
 18  0.000  0.558  0.000  0.558
 19  0.000  0.000  0.000  0.000
 20  0.000  0.001  0.000  0.001
 21  0.000  0.000  0.000  0.000
 22  0.000  0.001  0.000  0.001
 23  0.000  0.024  0.000  0.024
 24  0.000  0.066  0.000  0.066
 25  0.000  0.000  0.000  0.000
 26  0.000  0.066  0.000  0.066
 27  0.000  0.020  0.000  0.020
 28  0.000  0.001  0.000  0.001
 29  0.000  0.002  0.000  0.002
 30  0.000  0.000  0.000  0.000
 31  0.000  0.002  0.000  0.002
 32  0.000  0.000  0.000  0.000
 33  0.000  0.000  0.000  0.000
 34  0.000  0.000  0.000  0.000
 35  0.000  0.000  0.000  0.000
 36  0.000  0.000  0.000  0.000
 37  0.000  0.000  0.000  0.000
 38  0.000  0.000  0.000  0.000
tot  0.000  0.996  0.000  0.996
 
band  12 # energy  -71.06319847 # occ.  2.00000000
 
ion      s      p      d    tot
  1  0.000  0.000  0.000  0.000
  2  0.000  0.001  0.000  0.001
  3  0.000  0.000  0.000  0.000
  4  0.000  0.001  0.000  0.001
  5  0.000  0.001  0.000  0.001
  6  0.000  0.000  0.000  0.000
  7  0.000  0.000  0.000  0.000
  8  0.000  0.000  0.000  0.000
  9  0.000  0.001  0.000  0.001
 10  0.000  0.005  0.000  0.005
 11  0.000  0.016  0.000  0.016
 12  0.000  0.018  0.000  0.018
 13  0.000  0.016  0.000  0.016
 14  0.000  0.144  0.000  0.144
 15  0.000  0.159  0.000  0.159
 16  0.000  0.018  0.000  0.018
 17  0.000  0.159  0.000  0.159
 18  0.000  0.211  0.000  0.211
 19  0.000  0.000  0.000  0.000
 20  0.000  0.006  0.000  0.006
 21  0.000  0.003  0.000  0.003
 22  0.000  0.006  0.000  0.006
 23  0.000  0.132  0.000  0.132
 24  0.000  0.042  0.000  0.042
 25  0.000  0.003  0.000  0.003
 26  0.000  0.042  0.000  0.042
 27  0.000  0.009  0.000  0.009
 28  0.000  0.000  0.000  0.000
 29  0.000  0.001  0.000  0.001
 30  0.000  0.000  0.000  0.000
 31  0.000  0.001  0.000  0.001
 32  0.000  0.000  0.000  0.000
 33  0.000  0.000  0.000  0.000
 34  0.000  0.000  0.000  0.000
 35  0.000  0.000  0.000  0.000
 36  0.000  0.001  0.000  0.001
 37  0.000  0.000  0.000  0.000
 38  0.000  0.000  0.000  0.000
tot  0.000  0.996  0.000  0.996
 
band  13 # energy  -71.05971356 # occ.  2.00000000
 
ion      s      p      d    tot
  1  0.000  0.000  0.000  0.000
  2  0.000  0.000  0.000  0.000
  3  0.000  0.000  0.000  0.000
  4  0.000  0.000  0.000  0.000
  5  0.000  0.000  0.000  0.000
  6  0.000  0.000  0.000  0.000
  7  0.000  0.000  0.000  0.000
  8  0.000  0.000  0.000  0.000
  9  0.000  0.000  0.000  0.000
 10  0.000  0.001  0.000  0.001
 11  0.000  0.058  0.000  0.058
 12  0.000  0.009  0.000  0.009
 13  0.000  0.058  0.000  0.058
 14  0.000  0.034  0.000  0.034
 15  0.000  0.131  0.000  0.131
 16  0.000  0.009  0.000  0.009
 17  0.000  0.131  0.000  0.131
 18  0.000  0.052  0.000  0.052
 19  0.000  0.000  0.000  0.000
 20  0.000  0.004  0.000  0.004
 21  0.000  0.000  0.000  0.000
 22  0.000  0.004  0.000  0.004
 23  0.000  0.052  0.000  0.052
 24  0.000  0.220  0.000  0.220
 25  0.000  0.000  0.000  0.000
 26  0.000  0.220  0.000  0.220
 27  0.000  0.002  0.000  0.002
 28  0.000  0.000  0.000  0.000
 29  0.000  0.003  0.000  0.003
 30  0.000  0.000  0.000  0.000
 31  0.000  0.003  0.000  0.003
 32  0.000  0.000  0.000  0.000
 33  0.000  0.000  0.000  0.000
 34  0.000  0.000  0.000  0.000
 35  0.000  0.000  0.000  0.000
 36  0.000  0.002  0.000  0.002
 37  0.000  0.000  0.000  0.000
 38  0.000  0.000  0.000  0.000
tot  0.000  0.996  0.000  0.996
 
band  14 # energy  -71.05784140 # occ.  2.00000000
 
ion      s      p      d    tot
  1  0.000  0.000  0.000  0.000
  2  0.000  0.000  0.000  0.000
  3  0.000  0.000  0.000  0.000
  4  0.000  0.000  0.000  0.000
  5  0.000  0.000  0.000  0.000
  6  0.000  0.000  0.000  0.000
  7  0.000  0.000  0.000  0.000
  8  0.000  0.000  0.000  0.000
  9  0.000  0.000  0.000  0.000
 10  0.000  0.004  0.000  0.004
 11  0.000  0.024  0.000  0.024
 12  0.000  0.020  0.000  0.020
 13  0.000  0.024  0.000  0.024
 14  0.000  0.000  0.000  0.000
 15  0.000  0.099  0.000  0.099
 16  0.000  0.020  0.000  0.020
 17  0.000  0.099  0.000  0.099
 18  0.000  0.212  0.000  0.212
 19  0.000  0.000  0.000  0.000
 20  0.000  0.001  0.000  0.001
 21  0.000  0.002  0.000  0.002
 22  0.000  0.001  0.000  0.001
 23  0.000  0.015  0.000  0.015
 24  0.000  0.226  0.000  0.226
 25  0.000  0.002  0.000  0.002
 26  0.000  0.226  0.000  0.226
 27  0.000  0.001  0.000  0.001
 28  0.000  0.002  0.000  0.002
 29  0.000  0.008  0.000  0.008
 30  0.000  0.000  0.000  0.000
 31  0.000  0.008  0.000  0.008
 32  0.000  0.000  0.000  0.000
 33  0.000  0.000  0.000  0.000
 34  0.000  0.000  0.000  0.000
 35  0.000  0.000  0.000  0.000
 36  0.000  0.000  0.000  0.000
 37  0.000  0.000  0.000  0.000
 38  0.000  0.000  0.000  0.000
tot  0.000  0.996  0.000  0.996
 
band  15 # energy  -71.05415937 # occ.  2.00000000
 
ion      s      p      d    tot
  1  0.000  0.000  0.000  0.000
  2  0.000  0.000  0.000  0.000
  3  0.000  0.001  0.000  0.001
  4  0.000  0.000  0.000  0.000
  5  0.000  0.001  0.000  0.001
  6  0.000  0.000  0.000  0.000
  7  0.000  0.001  0.000  0.001
  8  0.000  0.000  0.000  0.000
  9  0.000  0.000  0.000  0.000
 10  0.000  0.002  0.000  0.002
 11  0.000  0.015  0.000  0.015
 12  0.000  0.033  0.000  0.033
 13  0.000  0.015  0.000  0.015
 14  0.000  0.092  0.000  0.092
 15  0.000  0.034  0.000  0.034
 16  0.000  0.033  0.000  0.033
 17  0.000  0.034  0.000  0.034
 18  0.000  0.133  0.000  0.133
 19  0.000  0.001  0.000  0.001
 20  0.000  0.005  0.000  0.005
 21  0.000  0.001  0.000  0.001
 22  0.000  0.005  0.000  0.005
 23  0.000  0.061  0.000  0.061
 24  0.000  0.257  0.000  0.257
 25  0.000  0.001  0.000  0.001
 26  0.000  0.257  0.000  0.257
 27  0.000  0.002  0.000  0.002
 28  0.000  0.000  0.000  0.000
 29  0.000  0.005  0.000  0.005
 30  0.000  0.000  0.000  0.000
 31  0.000  0.005  0.000  0.005
 32  0.000  0.000  0.000  0.000
 33  0.000  0.000  0.000  0.000
 34  0.000  0.000  0.000  0.000
 35  0.000  0.000  0.000  0.000
 36  0.000  0.001  0.000  0.001
 37  0.000  0.000  0.000  0.000
 38  0.000  0.000  0.000  0.000
tot  0.000  0.996  0.000  0.996
 
band  16 # energy  -71.04830259 # occ.  2.00000000
 
ion      s      p      d    tot
  1  0.000  0.000  0.000  0.000
  2  0.000  0.001  0.000  0.001
  3  0.000  0.000  0.000  0.000
  4  0.000  0.001  0.000  0.001
  5  0.000  0.000  0.000  0.000
  6  0.000  0.000  0.000  0.000
  7  0.000  0.000  0.000  0.000
  8  0.000  0.000  0.000  0.000
  9  0.000  0.000  0.000  0.000
 10  0.000  0.170  0.000  0.170
 11  0.000  0.026  0.000  0.026
 12  0.000  0.014  0.000  0.014
 13  0.000  0.026  0.000  0.026
 14  0.000  0.021  0.000  0.021
 15  0.000  0.167  0.000  0.167
 16  0.000  0.014  0.000  0.014
 17  0.000  0.167  0.000  0.167
 18  0.000  0.053  0.000  0.053
 19  0.000  0.002  0.000  0.002
 20  0.000  0.005  0.000  0.005
 21  0.000  0.007  0.000  0.007
 22  0.000  0.005  0.000  0.005
 23  0.000  0.074  0.000  0.074
 24  0.000  0.113  0.000  0.113
 25  0.000  0.007  0.000  0.007
 26  0.000  0.113  0.000  0.113
 27  0.000  0.003  0.000  0.003
 28  0.000  0.000  0.000  0.000
 29  0.000  0.002  0.000  0.002
 30  0.000  0.000  0.000  0.000
 31  0.000  0.002  0.000  0.002
 32  0.000  0.001  0.000  0.001
 33  0.000  0.000  0.000  0.000
 34  0.000  0.000  0.000  0.000
 35  0.000  0.000  0.000  0.000
 36  0.000  0.000  0.000  0.000
 37  0.000  0.000  0.000  0.000
 38  0.000  0.000  0.000  0.000
tot  0.000  0.996  0.000  0.996
 
band  17 # energy  -71.04751447 # occ.  2.00000000
 
ion      s      p      d    tot
  1  0.000  0.001  0.000  0.001
  2  0.000  0.000  0.000  0.000
  3  0.000  0.000  0.000  0.000
  4  0.000  0.000  0.000  0.000
  5  0.000  0.000  0.000  0.000
  6  0.000  0.001  0.000  0.001
  7  0.000  0.000  0.000  0.000
  8  0.000  0.001  0.000  0.001
  9  0.000  0.001  0.000  0.001
 10  0.000  0.029  0.000  0.029
 11  0.000  0.029  0.000  0.029
 12  0.000  0.056  0.000  0.056
 13  0.000  0.029  0.000  0.029
 14  0.000  0.208  0.000  0.208
 15  0.000  0.095  0.000  0.095
 16  0.000  0.056  0.000  0.056
 17  0.000  0.095  0.000  0.095
 18  0.000  0.032  0.000  0.032
 19  0.000  0.002  0.000  0.002
 20  0.000  0.028  0.000  0.028
 21  0.000  0.006  0.000  0.006
 22  0.000  0.028  0.000  0.028
 23  0.000  0.004  0.000  0.004
 24  0.000  0.132  0.000  0.132
 25  0.000  0.006  0.000  0.006
 26  0.000  0.132  0.000  0.132
 27  0.000  0.019  0.000  0.019
 28  0.000  0.000  0.000  0.000
 29  0.000  0.003  0.000  0.003
 30  0.000  0.000  0.000  0.000
 31  0.000  0.003  0.000  0.003
 32  0.000  0.000  0.000  0.000
 33  0.000  0.000  0.000  0.000
 34  0.000  0.000  0.000  0.000
 35  0.000  0.000  0.000  0.000
 36  0.000  0.000  0.000  0.000
 37  0.000  0.000  0.000  0.000
 38  0.000  0.000  0.000  0.000
tot  0.000  0.996  0.000  0.996
 
band  18 # energy  -71.04611910 # occ.  2.00000000
 
ion      s      p      d    tot
  1  0.000  0.001  0.000  0.001
  2  0.000  0.000  0.000  0.000
  3  0.000  0.000  0.000  0.000
  4  0.000  0.000  0.000  0.000
  5  0.000  0.000  0.000  0.000
  6  0.000  0.000  0.000  0.000
  7  0.000  0.000  0.000  0.000
  8  0.000  0.000  0.000  0.000
  9  0.000  0.001  0.000  0.001
 10  0.000  0.076  0.000  0.076
 11  0.000  0.017  0.000  0.017
 12  0.000  0.159  0.000  0.159
 13  0.000  0.017  0.000  0.017
 14  0.000  0.168  0.000  0.168
 15  0.000  0.065  0.000  0.065
 16  0.000  0.159  0.000  0.159
 17  0.000  0.065  0.000  0.065
 18  0.000  0.016  0.000  0.016
 19  0.000  0.000  0.000  0.000
 20  0.000  0.035  0.000  0.035
 21  0.000  0.006  0.000  0.006
 22  0.000  0.035  0.000  0.035
 23  0.000  0.021  0.000  0.021
 24  0.000  0.069  0.000  0.069
 25  0.000  0.006  0.000  0.006
 26  0.000  0.069  0.000  0.069
 27  0.000  0.007  0.000  0.007
 28  0.000  0.000  0.000  0.000
 29  0.000  0.001  0.000  0.001
 30  0.000  0.000  0.000  0.000
 31  0.000  0.001  0.000  0.001
 32  0.000  0.001  0.000  0.001
 33  0.000  0.000  0.000  0.000
 34  0.000  0.000  0.000  0.000
 35  0.000  0.000  0.000  0.000
 36  0.000  0.000  0.000  0.000
 37  0.000  0.000  0.000  0.000
 38  0.000  0.000  0.000  0.000
tot  0.000  0.996  0.000  0.996
 
band  19 # energy  -71.04568213 # occ.  2.00000000
 
ion      s      p      d    tot
  1  0.000  0.000  0.000  0.000
  2  0.000  0.000  0.000  0.000
  3  0.000  0.000  0.000  0.000
  4  0.000  0.000  0.000  0.000
  5  0.000  0.001  0.000  0.001
  6  0.000  0.001  0.000  0.001
  7  0.000  0.000  0.000  0.000
  8  0.000  0.001  0.000  0.001
  9  0.000  0.000  0.000  0.000
 10  0.000  0.056  0.000  0.056
 11  0.000  0.006  0.000  0.006
 12  0.000  0.107  0.000  0.107
 13  0.000  0.006  0.000  0.006
 14  0.000  0.189  0.000  0.189
 15  0.000  0.127  0.000  0.127
 16  0.000  0.107  0.000  0.107
 17  0.000  0.127  0.000  0.127
 18  0.000  0.028  0.000  0.028
 19  0.000  0.000  0.000  0.000
 20  0.000  0.021  0.000  0.021
 21  0.000  0.007  0.000  0.007
 22  0.000  0.021  0.000  0.021
 23  0.000  0.023  0.000  0.023
 24  0.000  0.076  0.000  0.076
 25  0.000  0.007  0.000  0.007
 26  0.000  0.076  0.000  0.076
 27  0.000  0.000  0.000  0.000
 28  0.000  0.000  0.000  0.000
 29  0.000  0.004  0.000  0.004
 30  0.000  0.000  0.000  0.000
 31  0.000  0.004  0.000  0.004
 32  0.000  0.000  0.000  0.000
 33  0.000  0.000  0.000  0.000
 34  0.000  0.000  0.000  0.000
 35  0.000  0.000  0.000  0.000
 36  0.000  0.000  0.000  0.000
 37  0.000  0.000  0.000  0.000
 38  0.000  0.000  0.000  0.000
tot  0.000  0.996  0.000  0.996
 
band  20 # energy  -71.04550857 # occ.  2.00000000
 
ion      s      p      d    tot
  1  0.000  0.000  0.000  0.000
  2  0.000  0.000  0.000  0.000
  3  0.000  0.000  0.000  0.000
  4  0.000  0.000  0.000  0.000
  5  0.000  0.000  0.000  0.000
  6  0.000  0.000  0.000  0.000
  7  0.000  0.000  0.000  0.000
  8  0.000  0.000  0.000  0.000
  9  0.000  0.001  0.000  0.001
 10  0.000  0.278  0.000  0.278
 11  0.000  0.018  0.000  0.018
 12  0.000  0.090  0.000  0.090
 13  0.000  0.018  0.000  0.018
 14  0.000  0.090  0.000  0.090
 15  0.000  0.140  0.000  0.140
 16  0.000  0.090  0.000  0.090
 17  0.000  0.140  0.000  0.140
 18  0.000  0.002  0.000  0.002
 19  0.000  0.000  0.000  0.000
 20  0.000  0.009  0.000  0.009
 21  0.000  0.018  0.000  0.018
 22  0.000  0.009  0.000  0.009
 23  0.000  0.019  0.000  0.019
 24  0.000  0.023  0.000  0.023
 25  0.000  0.018  0.000  0.018
 26  0.000  0.023  0.000  0.023
 27  0.000  0.001  0.000  0.001
 28  0.000  0.006  0.000  0.006
 29  0.000  0.000  0.000  0.000
 30  0.000  0.000  0.000  0.000
 31  0.000  0.000  0.000  0.000
 32  0.000  0.001  0.000  0.001
 33  0.000  0.000  0.000  0.000
 34  0.000  0.000  0.000  0.000
 35  0.000  0.000  0.000  0.000
 36  0.000  0.000  0.000  0.000
 37  0.000  0.000  0.000  0.000
 38  0.000  0.000  0.000  0.000
tot  0.000  0.996  0.000  0.996
 
band  21 # energy  -71.04372742 # occ.  2.00000000
 
ion      s      p      d    tot
  1  0.000  0.000  0.000  0.000
  2  0.000  0.000  0.000  0.000
  3  0.000  0.000  0.000  0.000
  4  0.000  0.000  0.000  0.000
  5  0.000  0.000  0.000  0.000
  6  0.000  0.001  0.000  0.001
  7  0.000  0.000  0.000  0.000
  8  0.000  0.001  0.000  0.001
  9  0.000  0.000  0.000  0.000
 10  0.000  0.047  0.000  0.047
 11  0.000  0.014  0.000  0.014
 12  0.000  0.092  0.000  0.092
 13  0.000  0.014  0.000  0.014
 14  0.000  0.348  0.000  0.348
 15  0.000  0.063  0.000  0.063
 16  0.000  0.092  0.000  0.092
 17  0.000  0.063  0.000  0.063
 18  0.000  0.002  0.000  0.002
 19  0.000  0.000  0.000  0.000
 20  0.000  0.028  0.000  0.028
 21  0.000  0.003  0.000  0.003
 22  0.000  0.028  0.000  0.028
 23  0.000  0.004  0.000  0.004
 24  0.000  0.087  0.000  0.087
 25  0.000  0.003  0.000  0.003
 26  0.000  0.087  0.000  0.087
 27  0.000  0.004  0.000  0.004
 28  0.000  0.002  0.000  0.002
 29  0.000  0.001  0.000  0.001
 30  0.000  0.000  0.000  0.000
 31  0.000  0.001  0.000  0.001
 32  0.000  0.011  0.000  0.011
 33  0.000  0.000  0.000  0.000
 34  0.000  0.000  0.000  0.000
 35  0.000  0.000  0.000  0.000
 36  0.000  0.000  0.000  0.000
 37  0.000  0.000  0.000  0.000
 38  0.000  0.000  0.000  0.000
tot  0.000  0.996  0.000  0.996
 
band  22 # energy  -71.04040984 # occ.  2.00000000
 
ion      s      p      d    tot
  1  0.000  0.001  0.000  0.001
  2  0.000  0.000  0.000  0.000
  3  0.000  0.000  0.000  0.000
  4  0.000  0.000  0.000  0.000
  5  0.000  0.001  0.000  0.001
  6  0.000  0.001  0.000  0.001
  7  0.000  0.000  0.000  0.000
  8  0.000  0.001  0.000  0.001
  9  0.000  0.000  0.000  0.000
 10  0.000  0.029  0.000  0.029
 11  0.000  0.038  0.000  0.038
 12  0.000  0.176  0.000  0.176
 13  0.000  0.038  0.000  0.038
 14  0.000  0.177  0.000  0.177
 15  0.000  0.092  0.000  0.092
 16  0.000  0.176  0.000  0.176
 17  0.000  0.092  0.000  0.092
 18  0.000  0.016  0.000  0.016
 19  0.000  0.001  0.000  0.001
 20  0.000  0.027  0.000  0.027
 21  0.000  0.007  0.000  0.007
 22  0.000  0.027  0.000  0.027
 23  0.000  0.016  0.000  0.016
 24  0.000  0.031  0.000  0.031
 25  0.000  0.007  0.000  0.007
 26  0.000  0.031  0.000  0.031
 27  0.000  0.006  0.000  0.006
 28  0.000  0.000  0.000  0.000
 29  0.000  0.002  0.000  0.002
 30  0.000  0.000  0.000  0.000
 31  0.000  0.002  0.000  0.002
 32  0.000  0.000  0.000  0.000
 33  0.000  0.000  0.000  0.000
 34  0.000  0.000  0.000  0.000
 35  0.000  0.000  0.000  0.000
 36  0.000  0.000  0.000  0.000
 37  0.000  0.000  0.000  0.000
 38  0.000  0.000  0.000  0.000
tot  0.000  0.996  0.000  0.996
 
band  23 # energy  -71.03939933 # occ.  2.00000000
 
ion      s      p      d    tot
  1  0.000  0.000  0.000  0.000
  2  0.000  0.001  0.000  0.001
  3  0.000  0.000  0.000  0.000
  4  0.000  0.001  0.000  0.001
  5  0.000  0.000  0.000  0.000
  6  0.000  0.000  0.000  0.000
  7  0.000  0.000  0.000  0.000
  8  0.000  0.000  0.000  0.000
  9  0.000  0.000  0.000  0.000
 10  0.000  0.006  0.000  0.006
 11  0.000  0.116  0.000  0.116