unknown system                          
           1
     7.529542    0.000000    0.000000
     3.764771    6.520775    0.000000
     0.000000    0.000000   26.207423
   Cu   C 
  36   2
Direct configuration=     1
   0.00000000  0.00000000  0.00000000
   0.00000000  0.33333333  0.00000000
   0.00000000  0.66666667  0.00000000
   0.33333333  0.00000000  0.00000000
   0.33333333  0.33333333  0.00000000
   0.33333333  0.66666667  0.00000000
   0.66666667  0.00000000  0.00000000
   0.66666667  0.33333333  0.00000000
   0.66666667  0.66666667  0.00000000
   0.11111111  0.11111111  0.07819471
   0.11111111  0.44444444  0.07819471
   0.11111111  0.77777778  0.07819471
   0.44444444  0.11111111  0.07819471
   0.44444444  0.44444444  0.07819471
   0.44444444  0.77777778  0.07819471
   0.77777778  0.11111111  0.07819471
   0.77777778  0.44444444  0.07819471
   0.77777778  0.77777778  0.07819471
   0.22156672  0.22156672  0.15698183
   0.22219376  0.55556979  0.15663707
   0.22156672  0.89019990  0.15698183
   0.55556979  0.22219376  0.15663707
   0.55556979  0.55556979  0.15663707
   0.55498583  0.88917375  0.15640686
   0.89019990  0.22156672  0.15698183
   0.88917375  0.55498583  0.15640686
   0.88917375  0.88917375  0.15640686
   0.99499124  0.99499124  0.23819225
   0.99499124  0.34335085  0.23819225
   0.99922840  0.66705247  0.23489935
   0.34335085  0.99499124  0.23819225
   0.33432735  0.33432735  0.23600336
   0.33432735  0.66467863  0.23600336
   0.66705247  0.99922840  0.23489935
   0.66467863  0.33432735  0.23600336
   0.66705247  0.66705247  0.23489935
   0.11111111  0.11111111  0.27869515
   0.33432735  0.33432735  0.32773892
Direct configuration=     2
   0.00000000  0.00000000  0.00000000
   0.00000000  0.33333333  0.00000000
   0.00000000  0.66666667  0.00000000
   0.33333333  0.00000000  0.00000000
   0.33333333  0.33333333  0.00000000
   0.33333333  0.66666667  0.00000000
   0.66666667  0.00000000  0.00000000
   0.66666667  0.33333333  0.00000000
   0.66666667  0.66666667  0.00000000
   0.11111111  0.11111111  0.07819471
   0.11111111  0.44444444  0.07819471
   0.11111111  0.77777778  0.07819471
   0.44444444  0.11111111  0.07819471
   0.44444444  0.44444444  0.07819471
   0.44444444  0.77777778  0.07819471
   0.77777778  0.11111111  0.07819471
   0.77777778  0.44444444  0.07819471
   0.77777778  0.77777778  0.07819471
   0.22193497  0.22193497  0.15706520
   0.22253690  0.55515218  0.15653934
   0.22181915  0.88994930  0.15704601
   0.55515218  0.22253690  0.15653934
   0.55551745  0.55551745  0.15666167
   0.55508738  0.88917097  0.15639253
   0.88994930  0.22181915  0.15704601
   0.88917097  0.55508738  0.15639253
   0.88909536  0.88909536  0.15647297
   0.99533922  0.99533922  0.23813201
   0.99466740  0.34332902  0.23830030
   0.99945644  0.66681884  0.23521231
   0.34332902  0.99466740  0.23830030
   0.33475856  0.33475856  0.23941819
   0.33420436  0.66440236  0.23631742
   0.66681884  0.99945644  0.23521231
   0.66440236  0.33420436  0.23631742
   0.66705103  0.66705103  0.23488532
   0.11182177  0.11182177  0.27919183
   0.33330502  0.33330502  0.32265347
Direct configuration=     3
   0.00000000  0.00000000  0.00000000
   0.00000000  0.33333333  0.00000000
   0.00000000  0.66666667  0.00000000
   0.33333333  0.00000000  0.00000000
   0.33333333  0.33333333  0.00000000
   0.33333333  0.66666667  0.00000000
   0.66666667  0.00000000  0.00000000
   0.66666667  0.33333333  0.00000000
   0.66666667  0.66666667  0.00000000
   0.11111111  0.11111111  0.07819471
   0.11111111  0.44444444  0.07819471
   0.11111111  0.77777778  0.07819471
   0.44444444  0.11111111  0.07819471
   0.44444444  0.44444444  0.07819471
   0.44444444  0.77777778  0.07819471
   0.77777778  0.11111111  0.07819471
   0.77777778  0.44444444  0.07819471
   0.77777778  0.77777778  0.07819471
   0.22303972  0.22303972  0.15731530
   0.22356631  0.55389935  0.15624612
   0.22257646  0.88919750  0.15723856
   0.55389935  0.22356631  0.15624612
   0.55536045  0.55536045  0.15673544
   0.55539204  0.88916263  0.15634955
   0.88919750  0.22257646  0.15723856
   0.88916263  0.55539204  0.15634955
   0.88886017  0.88886017  0.15667131
   0.99638313  0.99638313  0.23795129
   0.99369585  0.34326354  0.23862443
   0.00014055  0.66611798  0.23615119
   0.34326354  0.99369585  0.23862443
   0.33605219  0.33605219  0.24966269
   0.33383537  0.66357356  0.23725958
   0.66611798  0.00014055  0.23615119
   0.66357356  0.33383537  0.23725958
   0.66704674  0.66704674  0.23484322
   0.11395373  0.11395373  0.28068189
   0.33023805  0.33023805  0.30739712
Direct configuration=     4
   0.00000000  0.00000000  0.00000000
   0.00000000  0.33333333  0.00000000
   0.00000000  0.66666667  0.00000000
   0.33333333  0.00000000  0.00000000
   0.33333333  0.33333333  0.00000000
   0.33333333  0.66666667  0.00000000
   0.66666667  0.00000000  0.00000000
   0.66666667  0.33333333  0.00000000
   0.66666667  0.66666667  0.00000000
   0.11111111  0.11111111  0.07819471
   0.11111111  0.44444444  0.07819471
   0.11111111  0.77777778  0.07819471
   0.44444444  0.11111111  0.07819471
   0.44444444  0.44444444  0.07819471
   0.44444444  0.77777778  0.07819471
   0.77777778  0.11111111  0.07819471
   0.77777778  0.44444444  0.07819471
   0.77777778  0.77777778  0.07819471
   0.22220810  0.22220810  0.15712703
   0.22279141  0.55484243  0.15646684
   0.22200639  0.88976343  0.15709362
   0.55484243  0.22279141  0.15646684
   0.55547864  0.55547864  0.15667991
   0.55516271  0.88916891  0.15638191
   0.88976343  0.22200639  0.15709362
   0.88916891  0.55516271  0.15638191
   0.88903721  0.88903721  0.15652201
   0.99559731  0.99559731  0.23808733
   0.99442720  0.34331283  0.23838043
  -0.00037443  0.66664557  0.23544443
   0.34331283  0.99442720  0.23838043
   0.33507839  0.33507839  0.24195100
   0.33411313  0.66419746  0.23655035
   0.66664557 -0.00037443  0.23544443
   0.66419746  0.33411313  0.23655035
   0.66704997  0.66704997  0.23487491
   0.11234886  0.11234886  0.27956023
   0.33254676  0.33254676  0.31888155
Direct configuration=     5
   0.00000000  0.00000000  0.00000000
   0.00000000  0.33333333  0.00000000
   0.00000000  0.66666667  0.00000000
   0.33333333  0.00000000  0.00000000
   0.33333333  0.33333333  0.00000000
   0.33333333  0.66666667  0.00000000
   0.66666667  0.00000000  0.00000000
   0.66666667  0.33333333  0.00000000
   0.66666667  0.66666667  0.00000000
   0.11111111  0.11111111  0.07819471
   0.11111111  0.44444444  0.07819471
   0.11111111  0.77777778  0.07819471
   0.44444444  0.11111111  0.07819471
   0.44444444  0.44444444  0.07819471
   0.44444444  0.77777778  0.07819471
   0.77777778  0.11111111  0.07819471
   0.77777778  0.44444444  0.07819471
   0.77777778  0.77777778  0.07819471
   0.22262391  0.22262391  0.15722117
   0.22317886  0.55437089  0.15635648
   0.22229142  0.88948046  0.15716609
   0.55437089  0.22317886  0.15635648
   0.55541954  0.55541954  0.15670767
   0.55527737  0.88916577  0.15636573
   0.88948046  0.22229142  0.15716609
   0.88916577  0.55527737  0.15636573
   0.88894869  0.88894869  0.15659666
   0.99599022  0.99599022  0.23801931
   0.99406152  0.34328819  0.23850243
  -0.00011694  0.66638177  0.23579781
   0.34328819  0.99406152  0.23850243
   0.33556529  0.33556529  0.24580684
   0.33397425  0.66388551  0.23690497
   0.66638177 -0.00011694  0.23579781
   0.66388551  0.33397425  0.23690497
   0.66704836  0.66704836  0.23485907
   0.11315130  0.11315130  0.28012106
   0.33139240  0.33139240  0.31313933
Direct configuration=     6
   0.00000000  0.00000000  0.00000000
   0.00000000  0.33333333  0.00000000
   0.00000000  0.66666667  0.00000000
   0.33333333  0.00000000  0.00000000
   0.33333333  0.33333333  0.00000000
   0.33333333  0.66666667  0.00000000
   0.66666667  0.00000000  0.00000000
   0.66666667  0.33333333  0.00000000
   0.66666667  0.66666667  0.00000000
   0.11111111  0.11111111  0.07819471
   0.11111111  0.44444444  0.07819471
   0.11111111  0.77777778  0.07819471
   0.44444444  0.11111111  0.07819471
   0.44444444  0.44444444  0.07819471
   0.44444444  0.77777778  0.07819471
   0.77777778  0.11111111  0.07819471
   0.77777778  0.44444444  0.07819471
   0.77777778  0.77777778  0.07819471
   0.22266500  0.22266500  0.15723047
   0.22321714  0.55432430  0.15634558
   0.22231959  0.88945250  0.15717325
   0.55432430  0.22321714  0.15634558
   0.55541370  0.55541370  0.15671042
   0.55528870  0.88916546  0.15636413
   0.88945250  0.22231959  0.15717325
   0.88916546  0.55528870  0.15636413
   0.88893994  0.88893994  0.15660404
   0.99602905  0.99602905  0.23801259
   0.99402539  0.34328575  0.23851449
  -0.00009150  0.66635570  0.23583273
   0.34328575  0.99402539  0.23851449
   0.33561340  0.33561340  0.24618787
   0.33396053  0.66385468  0.23694001
   0.66635570 -0.00009150  0.23583273
   0.66385468  0.33396053  0.23694001
   0.66704820  0.66704820  0.23485750
   0.11323059  0.11323059  0.28017648
   0.33127833  0.33127833  0.31257191
Direct configuration=     7
   0.00000000  0.00000000  0.00000000
   0.00000000  0.33333333  0.00000000
   0.00000000  0.66666667  0.00000000
   0.33333333  0.00000000  0.00000000
   0.33333333  0.33333333  0.00000000
   0.33333333  0.66666667  0.00000000
   0.66666667  0.00000000  0.00000000
   0.66666667  0.33333333  0.00000000
   0.66666667  0.66666667  0.00000000
   0.11111111  0.11111111  0.07819471
   0.11111111  0.44444444  0.07819471
   0.11111111  0.77777778  0.07819471
   0.44444444  0.11111111  0.07819471
   0.44444444  0.44444444  0.07819471
   0.44444444  0.77777778  0.07819471
   0.77777778  0.11111111  0.07819471
   0.77777778  0.44444444  0.07819471
   0.77777778  0.77777778  0.07819471
   0.22264795  0.22264795  0.15722661
   0.22320126  0.55434363  0.15635010
   0.22230790  0.88946410  0.15717028
   0.55434363  0.22320126  0.15635010
   0.55541613  0.55541613  0.15670928
   0.55528400  0.88916559  0.15636479
   0.88946410  0.22230790  0.15717028
   0.88916559  0.55528400  0.15636479
   0.88894357  0.88894357  0.15660098
   0.99601294  0.99601294  0.23801537
   0.99404038  0.34328676  0.23850948
  -0.00010205  0.66636652  0.23581824
   0.34328676  0.99404038  0.23850948
   0.33559344  0.33559344  0.24602978
   0.33396622  0.66386747  0.23692547
   0.66636652 -0.00010205  0.23581824
   0.66386747  0.33396622  0.23692547
   0.66704826  0.66704826  0.23485815
   0.11319769  0.11319769  0.28015349
   0.33132566  0.33132566  0.31280733
Direct configuration=     8
   0.00000000  0.00000000  0.00000000
   0.00000000  0.33333333  0.00000000
   0.00000000  0.66666667  0.00000000
   0.33333333  0.00000000  0.00000000
   0.33333333  0.33333333  0.00000000
   0.33333333  0.66666667  0.00000000
   0.66666667  0.00000000  0.00000000
   0.66666667  0.33333333  0.00000000
   0.66666667  0.66666667  0.00000000
   0.11111111  0.11111111  0.07819471
   0.11111111  0.44444444  0.07819471
   0.11111111  0.77777778  0.07819471
   0.44444444  0.11111111  0.07819471
   0.44444444  0.44444444  0.07819471
   0.44444444  0.77777778  0.07819471
   0.77777778  0.11111111  0.07819471
   0.77777778  0.44444444  0.07819471
   0.77777778  0.77777778  0.07819471
   0.22308345  0.22308345  0.15774303
   0.22346698  0.55361088  0.15687056
   0.22243145  0.88959165  0.15735010
   0.55361088  0.22346698  0.15687056
   0.55525422  0.55525422  0.15689367
   0.55522405  0.88957126  0.15647117
   0.88959165  0.22243145  0.15735010
   0.88957126  0.55522405  0.15647117
   0.88887136  0.88887136  0.15685076
   0.99751778  0.99751778  0.23832608
   0.99427975  0.34259832  0.23854770
   0.00012849  0.66644810  0.23591538
   0.34259832  0.99427975  0.23854770
   0.33569073  0.33569073  0.24482999
   0.33365240  0.66435373  0.23697558
   0.66644810  0.00012849  0.23591538
   0.66435373  0.33365240  0.23697558
   0.66691840  0.66691840  0.23479461
   0.11294227  0.11294227  0.28003920
   0.32971876  0.32971876  0.31127761
Direct configuration=     9
   0.00000000  0.00000000  0.00000000
   0.00000000  0.33333333  0.00000000
   0.00000000  0.66666667  0.00000000
   0.33333333  0.00000000  0.00000000
   0.33333333  0.33333333  0.00000000
   0.33333333  0.66666667  0.00000000
   0.66666667  0.00000000  0.00000000
   0.66666667  0.33333333  0.00000000
   0.66666667  0.66666667  0.00000000
   0.11111111  0.11111111  0.07819471
   0.11111111  0.44444444  0.07819471
   0.11111111  0.77777778  0.07819471
   0.44444444  0.11111111  0.07819471
   0.44444444  0.44444444  0.07819471
   0.44444444  0.77777778  0.07819471
   0.77777778  0.11111111  0.07819471
   0.77777778  0.44444444  0.07819471
   0.77777778  0.77777778  0.07819471
   0.22388732  0.22388732  0.15869628
   0.22395748  0.55225834  0.15783125
   0.22265951  0.88982707  0.15768201
   0.55225834  0.22395748  0.15783125
   0.55495537  0.55495537  0.15723403
   0.55511339  0.89032009  0.15666751
   0.88982707  0.22265951  0.15768201
   0.89032009  0.55511339  0.15666751
   0.88873805  0.88873805  0.15731182
   0.00029551  0.00029551  0.23889959
   0.99472158  0.34132754  0.23861823
   0.00055403  0.66659869  0.23609468
   0.34132754  0.99472158  0.23861823
   0.33587031  0.33587031  0.24261534
   0.33307314  0.66525130  0.23706807
   0.66659869  0.00055403  0.23609468
   0.66525130  0.33307314  0.23706807
   0.66667869  0.66667869  0.23467734
   0.11247079  0.11247079  0.27982824
   0.32675265  0.32675265  0.30845396
Direct configuration=    10
   0.00000000  0.00000000  0.00000000
   0.00000000  0.33333333  0.00000000
   0.00000000  0.66666667  0.00000000
   0.33333333  0.00000000  0.00000000
   0.33333333  0.33333333  0.00000000
   0.33333333  0.66666667  0.00000000
   0.66666667  0.00000000  0.00000000
   0.66666667  0.33333333  0.00000000
   0.66666667  0.66666667  0.00000000
   0.11111111  0.11111111  0.07819471
   0.11111111  0.44444444  0.07819471
   0.11111111  0.77777778  0.07819471
   0.44444444  0.11111111  0.07819471
   0.44444444  0.44444444  0.07819471
   0.44444444  0.77777778  0.07819471
   0.77777778  0.11111111  0.07819471
   0.77777778  0.44444444  0.07819471
   0.77777778  0.77777778  0.07819471
   0.22395835  0.22395835  0.15884023
   0.22398098  0.55218521  0.15798444
   0.22268148  0.88987686  0.15772968
   0.55218521  0.22398098  0.15798444
   0.55492094  0.55492094  0.15728655
   0.55511259  0.89040787  0.15669969
   0.88987686  0.22268148  0.15772968
   0.89040787  0.55511259  0.15669969
   0.88876258  0.88876258  0.15741228
   0.00034401  0.00034401  0.23889778
   0.99465482  0.34149038  0.23862443
   0.00054457  0.66676525  0.23615967
   0.34149038  0.99465482  0.23862443
   0.33596964  0.33596964  0.24186809
   0.33302150  0.66543136  0.23710407
   0.66676525  0.00054457  0.23615967
   0.66543136  0.33302150  0.23710407
   0.66665496  0.66665496  0.23465853
   0.11264329  0.11264329  0.27999965
   0.32588764  0.32588764  0.30795520
Direct configuration=    11
   0.00000000  0.00000000  0.00000000
   0.00000000  0.33333333  0.00000000
   0.00000000  0.66666667  0.00000000
   0.33333333  0.00000000  0.00000000
   0.33333333  0.33333333  0.00000000
   0.33333333  0.66666667  0.00000000
   0.66666667  0.00000000  0.00000000
   0.66666667  0.33333333  0.00000000
   0.66666667  0.66666667  0.00000000
   0.11111111  0.11111111  0.07819471
   0.11111111  0.44444444  0.07819471
   0.11111111  0.77777778  0.07819471
   0.44444444  0.11111111  0.07819471
   0.44444444  0.44444444  0.07819471
   0.44444444  0.77777778  0.07819471
   0.77777778  0.11111111  0.07819471
   0.77777778  0.44444444  0.07819471
   0.77777778  0.77777778  0.07819471
   0.22417145  0.22417145  0.15927207
   0.22405150  0.55196581  0.15844398
   0.22274739  0.89002623  0.15787267
   0.55196581  0.22405150  0.15844398
   0.55481763  0.55481763  0.15744412
   0.55511022  0.89067123  0.15679623
   0.89002623  0.22274739  0.15787267
   0.89067123  0.55511022  0.15679623
   0.88883614  0.88883614  0.15771364
   0.00048950  0.00048950  0.23889234
   0.99445455  0.34197890  0.23864304
   0.00051619  0.66726494  0.23635462
   0.34197890  0.99445455  0.23864304
   0.33626761  0.33626761  0.23962635
   0.33286658  0.66597154  0.23721207
   0.66726494  0.00051619  0.23635462
   0.66597154  0.33286658  0.23721207
   0.66658378  0.66658378  0.23460209
   0.11316077  0.11316077  0.28051391
   0.32329258  0.32329258  0.30645892
Direct configuration=    12
   0.00000000  0.00000000  0.00000000
   0.00000000  0.33333333  0.00000000
   0.00000000  0.66666667  0.00000000
   0.33333333  0.00000000  0.00000000
   0.33333333  0.33333333  0.00000000
   0.33333333  0.66666667  0.00000000
   0.66666667  0.00000000  0.00000000
   0.66666667  0.33333333  0.00000000
   0.66666667  0.66666667  0.00000000
   0.11111111  0.11111111  0.07819471
   0.11111111  0.44444444  0.07819471
   0.11111111  0.77777778  0.07819471
   0.44444444  0.11111111  0.07819471
   0.44444444  0.44444444  0.07819471
   0.44444444  0.77777778  0.07819471
   0.77777778  0.11111111  0.07819471
   0.77777778  0.44444444  0.07819471
   0.77777778  0.77777778  0.07819471
   0.22459764  0.22459764  0.16013575
   0.22419253  0.55152701  0.15936308
   0.22287922  0.89032495  0.15815866
   0.55152701  0.22419253  0.15936308
   0.55461101  0.55461101  0.15775924
   0.55510547  0.89119794  0.15698930
   0.89032495  0.22287922  0.15815866
   0.89119794  0.55510547  0.15698930
   0.88898328  0.88898328  0.15831637
   0.00078048  0.00078048  0.23888146
   0.99405400  0.34295595  0.23868025
   0.00045944  0.66826432  0.23674454
   0.34295595  0.99405400  0.23868025
   0.33686356  0.33686356  0.23514286
   0.33255674  0.66705190  0.23742807
   0.66826432  0.00045944  0.23674454
   0.66705190  0.33255674  0.23742807
   0.66644141  0.66644141  0.23448921
   0.11419573  0.11419573  0.28154241
   0.31810246  0.31810246  0.30346637
Direct configuration=    13
   0.00000000  0.00000000  0.00000000
   0.00000000  0.33333333  0.00000000
   0.00000000  0.66666667  0.00000000
   0.33333333  0.00000000  0.00000000
   0.33333333  0.33333333  0.00000000
   0.33333333  0.66666667  0.00000000
   0.66666667  0.00000000  0.00000000
   0.66666667  0.33333333  0.00000000
   0.66666667  0.66666667  0.00000000
   0.11111111  0.11111111  0.07819471
   0.11111111  0.44444444  0.07819471
   0.11111111  0.77777778  0.07819471
   0.44444444  0.11111111  0.07819471
   0.44444444  0.44444444  0.07819471
   0.44444444  0.77777778  0.07819471
   0.77777778  0.11111111  0.07819471
   0.77777778  0.44444444  0.07819471
   0.77777778  0.77777778  0.07819471
   0.22444337  0.22444337  0.15982312
   0.22414148  0.55168584  0.15903039
   0.22283150  0.89021682  0.15805514
   0.55168584  0.22414148  0.15903039
   0.55468580  0.55468580  0.15764517
   0.55510719  0.89100729  0.15691941
   0.89021682  0.22283150  0.15805514
   0.89100729  0.55510719  0.15691941
   0.88893002  0.88893002  0.15809820
   0.00067516  0.00067516  0.23888540
   0.99419899  0.34260228  0.23866678
   0.00047999  0.66790258  0.23660340
   0.34260228  0.99419899  0.23866678
   0.33664784  0.33664784  0.23676576
   0.33266890  0.66666084  0.23734988
   0.66790258  0.00047999  0.23660340
   0.66666084  0.33266890  0.23734988
   0.66649295  0.66649295  0.23453007
   0.11382110  0.11382110  0.28117012
   0.31998114  0.31998114  0.30454959
Direct configuration=    14
   0.00000000  0.00000000  0.00000000
   0.00000000  0.33333333  0.00000000
   0.00000000  0.66666667  0.00000000
   0.33333333  0.00000000  0.00000000
   0.33333333  0.33333333  0.00000000
   0.33333333  0.66666667  0.00000000
   0.66666667  0.00000000  0.00000000
   0.66666667  0.33333333  0.00000000
   0.66666667  0.66666667  0.00000000
   0.11111111  0.11111111  0.07819471
   0.11111111  0.44444444  0.07819471
   0.11111111  0.77777778  0.07819471
   0.44444444  0.11111111  0.07819471
   0.44444444  0.44444444  0.07819471
   0.44444444  0.77777778  0.07819471
   0.77777778  0.11111111  0.07819471
   0.77777778  0.44444444  0.07819471
   0.77777778  0.77777778  0.07819471
   0.22402953  0.22402953  0.15969848
   0.22371456  0.55270824  0.15888776
   0.22281517  0.89029196  0.15803956
   0.55270824  0.22371456  0.15888776
   0.55474647  0.55474647  0.15764374
   0.55524463  0.89085810  0.15691153
   0.89029196  0.22281517  0.15803956
   0.89085810  0.55524463  0.15691153
   0.88909300  0.88909300  0.15818850
   0.00011662  0.00011662  0.23881953
   0.99409569  0.34328410  0.23881182
   0.00017974  0.66842547  0.23682843
   0.34328410  0.99409569  0.23881182
   0.33691121  0.33691121  0.23578212
   0.33288232  0.66695096  0.23748118
   0.66842547  0.00017974  0.23682843
   0.66695096  0.33288232  0.23748118
   0.66656691  0.66656691  0.23454232
   0.11479855  0.11479855  0.28167178
   0.31739447  0.31739447  0.30314227
Direct configuration=    15
   0.00000000  0.00000000  0.00000000
   0.00000000  0.33333333  0.00000000
   0.00000000  0.66666667  0.00000000
   0.33333333  0.00000000  0.00000000
   0.33333333  0.33333333  0.00000000
   0.33333333  0.66666667  0.00000000
   0.66666667  0.00000000  0.00000000
   0.66666667  0.33333333  0.00000000
   0.66666667  0.66666667  0.00000000
   0.11111111  0.11111111  0.07819471
   0.11111111  0.44444444  0.07819471
   0.11111111  0.77777778  0.07819471
   0.44444444  0.11111111  0.07819471
   0.44444444  0.44444444  0.07819471
   0.44444444  0.77777778  0.07819471
   0.77777778  0.11111111  0.07819471
   0.77777778  0.44444444  0.07819471
   0.77777778  0.77777778  0.07819471
   0.22278801  0.22278801  0.15932456
   0.22243378  0.55577544  0.15845988
   0.22276617  0.89051737  0.15799280
   0.55577544  0.22243378  0.15845988
   0.55492845  0.55492845  0.15763945
   0.55565694  0.89041056  0.15688788
   0.89051737  0.22276617  0.15799280
   0.89041056  0.55565694  0.15688788
   0.88958193  0.88958193  0.15845941
  -0.00155898 -0.00155898  0.23862194
   0.99378579  0.34532954  0.23924695
  -0.00072100  0.66999413  0.23750350
   0.34532954  0.99378579  0.23924695
   0.33770131  0.33770131  0.23283121
   0.33352258  0.66782130  0.23787509
   0.66999413 -0.00072100  0.23750350
   0.66782130  0.33352258  0.23787509
   0.66678882  0.66678882  0.23457908
   0.11773090  0.11773090  0.28317676
   0.30963447  0.30963447  0.29892029
Direct configuration=    16
   0.00000000  0.00000000  0.00000000
   0.00000000  0.33333333  0.00000000
   0.00000000  0.66666667  0.00000000
   0.33333333  0.00000000  0.00000000
   0.33333333  0.33333333  0.00000000
   0.33333333  0.66666667  0.00000000
   0.66666667  0.00000000  0.00000000
   0.66666667  0.33333333  0.00000000
   0.66666667  0.66666667  0.00000000
   0.11111111  0.11111111  0.07819471
   0.11111111  0.44444444  0.07819471
   0.11111111  0.77777778  0.07819471
   0.44444444  0.11111111  0.07819471
   0.44444444  0.44444444  0.07819471
   0.44444444  0.77777778  0.07819471
   0.77777778  0.11111111  0.07819471
   0.77777778  0.44444444  0.07819471
   0.77777778  0.77777778  0.07819471
   0.22030496  0.22030496  0.15857671
   0.21987224  0.56190983  0.15760412
   0.22266816  0.89096820  0.15789929
   0.56190983  0.21987224  0.15760412
   0.55529242  0.55529242  0.15763087
   0.55648158  0.88951546  0.15684058
   0.89096820  0.22266816  0.15789929
   0.88951546  0.55648158  0.15684058
   0.89055979  0.89055979  0.15900123
  -0.00491018 -0.00491018  0.23822675
   0.99316598  0.34942042  0.24011722
  -0.00252247  0.67313147  0.23885366
   0.34942042  0.99316598  0.24011722
   0.33928151  0.33928151  0.22692938
   0.33480310  0.66956197  0.23866290
   0.67313147 -0.00252247  0.23885366
   0.66956197  0.33480310  0.23866290
   0.66723262  0.66723262  0.23465259
   0.12359558  0.12359558  0.28618672
   0.29411447  0.29411447  0.29047635
Direct configuration=    17
   0.00000000  0.00000000  0.00000000
   0.00000000  0.33333333  0.00000000
   0.00000000  0.66666667  0.00000000
   0.33333333  0.00000000  0.00000000
   0.33333333  0.33333333  0.00000000
   0.33333333  0.66666667  0.00000000
   0.66666667  0.00000000  0.00000000
   0.66666667  0.33333333  0.00000000
   0.66666667  0.66666667  0.00000000
   0.11111111  0.11111111  0.07819471
   0.11111111  0.44444444  0.07819471
   0.11111111  0.77777778  0.07819471
   0.44444444  0.11111111  0.07819471
   0.44444444  0.44444444  0.07819471
   0.44444444  0.77777778  0.07819471
   0.77777778  0.11111111  0.07819471
   0.77777778  0.44444444  0.07819471
   0.77777778  0.77777778  0.07819471
   0.21533886  0.21533886  0.15708103
   0.21474914  0.57417860  0.15589259
   0.22247214  0.89186985  0.15771226
   0.57417860  0.21474914  0.15589259
   0.55602036  0.55602036  0.15761371
   0.55813084  0.88772527  0.15674598
   0.89186985  0.22247214  0.15771226
   0.88772527  0.55813084  0.15674598
   0.89251551  0.89251551  0.16008486
  -0.01161258 -0.01161258  0.23743636
   0.99192637  0.35760218  0.24185775
  -0.00612543  0.67940614  0.24155398
   0.35760218  0.99192637  0.24185775
   0.34244192  0.34244192  0.21512574
   0.33736415  0.67304333  0.24023852
   0.67940614 -0.00612543  0.24155398
   0.67304333  0.33736415  0.24023852
   0.66812023  0.66812023  0.23479962
   0.13532496  0.13532496  0.29220664
   0.26307446  0.26307446  0.27358845
Direct configuration=    18
   0.00000000  0.00000000  0.00000000
   0.00000000  0.33333333  0.00000000
   0.00000000  0.66666667  0.00000000
   0.33333333  0.00000000  0.00000000
   0.33333333  0.33333333  0.00000000
   0.33333333  0.66666667  0.00000000
   0.66666667  0.00000000  0.00000000
   0.66666667  0.33333333  0.00000000
   0.66666667  0.66666667  0.00000000
   0.11111111  0.11111111  0.07819471
   0.11111111  0.44444444  0.07819471
   0.11111111  0.77777778  0.07819471
   0.44444444  0.11111111  0.07819471
   0.44444444  0.44444444  0.07819471
   0.44444444  0.77777778  0.07819471
   0.77777778  0.11111111  0.07819471
   0.77777778  0.44444444  0.07819471
   0.77777778  0.77777778  0.07819471
   0.21636681  0.21636681  0.15739062
   0.21580959  0.57163905  0.15624686
   0.22251272  0.89168321  0.15775098
   0.57163905  0.21580959  0.15624686
   0.55586968  0.55586968  0.15761726
   0.55778945  0.88809583  0.15676556
   0.89168321  0.22251272  0.15775098
   0.88809583  0.55778945  0.15676556
   0.89211069  0.89211069  0.15986056
  -0.01022523 -0.01022523  0.23759997
   0.99218296  0.35590861  0.24149748
  -0.00537964  0.67810733  0.24099503
   0.35590861  0.99218296  0.24149748
   0.34178774  0.34178774  0.21756901
   0.33683403  0.67232271  0.23991238
   0.67810733 -0.00537964  0.24099503
   0.67232271  0.33683403  0.23991238
   0.66793650  0.66793650  0.23476919
   0.13289706  0.13289706  0.29096056
   0.26949953  0.26949953  0.27708413
Direct configuration=    19
   0.00000000  0.00000000  0.00000000
   0.00000000  0.33333333  0.00000000
   0.00000000  0.66666667  0.00000000
   0.33333333  0.00000000  0.00000000
   0.33333333  0.33333333  0.00000000
   0.33333333  0.66666667  0.00000000
   0.66666667  0.00000000  0.00000000
   0.66666667  0.33333333  0.00000000
   0.66666667  0.66666667  0.00000000
   0.11111111  0.11111111  0.07819471
   0.11111111  0.44444444  0.07819471
   0.11111111  0.77777778  0.07819471
   0.44444444  0.11111111  0.07819471
   0.44444444  0.44444444  0.07819471
   0.44444444  0.77777778  0.07819471
   0.77777778  0.11111111  0.07819471
   0.77777778  0.44444444  0.07819471
   0.77777778  0.77777778  0.07819471
   0.21560407  0.21560407  0.15716090
   0.21502274  0.57352339  0.15598399
   0.22248261  0.89182169  0.15772225
   0.57352339  0.21502274  0.15598399
   0.55598148  0.55598148  0.15761463
   0.55804276  0.88782087  0.15675103
   0.89182169  0.22248261  0.15772225
   0.88782087  0.55804276  0.15675103
   0.89241107  0.89241107  0.16002699
  -0.01125463 -0.01125463  0.23747857
   0.99199257  0.35716523  0.24176480
  -0.00593301  0.67907104  0.24140977
   0.35716523  0.99199257  0.24176480
   0.34227314  0.34227314  0.21575611
   0.33722737  0.67285741  0.24015438
   0.67907104 -0.00593301  0.24140977
   0.67285741  0.33722737  0.24015438
   0.66807283  0.66807283  0.23479177
   0.13469855  0.13469855  0.29188514
   0.26473216  0.26473216  0.27449035
Direct configuration=    20
   0.00000000  0.00000000  0.00000000
   0.00000000  0.33333333  0.00000000
   0.00000000  0.66666667  0.00000000
   0.33333333  0.00000000  0.00000000
   0.33333333  0.33333333  0.00000000
   0.33333333  0.66666667  0.00000000
   0.66666667  0.00000000  0.00000000
   0.66666667  0.33333333  0.00000000
   0.66666667  0.66666667  0.00000000
   0.11111111  0.11111111  0.07819471
   0.11111111  0.44444444  0.07819471
   0.11111111  0.77777778  0.07819471
   0.44444444  0.11111111  0.07819471
   0.44444444  0.44444444  0.07819471
   0.44444444  0.77777778  0.07819471
   0.77777778  0.11111111  0.07819471
   0.77777778  0.44444444  0.07819471
   0.77777778  0.77777778  0.07819471
   0.21551148  0.21551148  0.15712703
   0.21491838  0.57376538  0.15594312
   0.22248414  0.89183559  0.15771992
   0.57376538  0.21491838  0.15594312
   0.55599301  0.55599301  0.15761545
   0.55806984  0.88779613  0.15675020
   0.89183559  0.22248414  0.15771992
   0.88779613  0.55806984  0.15675020
   0.89244119  0.89244119  0.16004329
  -0.01134335 -0.01134335  0.23747013
   0.99195989  0.35730968  0.24179345
  -0.00598232  0.67915959  0.24145765
   0.35730968  0.99195989  0.24179345
   0.34233878  0.34233878  0.21556260
   0.33727382  0.67291927  0.24018052
   0.67915959 -0.00598232  0.24145765
   0.67291927  0.33727382  0.24018052
   0.66808936  0.66808936  0.23479495
   0.13498096  0.13498096  0.29198645
   0.26407414  0.26407414  0.27419101
Direct configuration=    21
   0.00000000  0.00000000  0.00000000
   0.00000000  0.33333333  0.00000000
   0.00000000  0.66666667  0.00000000
   0.33333333  0.00000000  0.00000000
   0.33333333  0.33333333  0.00000000
   0.33333333  0.66666667  0.00000000
   0.66666667  0.00000000  0.00000000
   0.66666667  0.33333333  0.00000000
   0.66666667  0.66666667  0.00000000