  38  38   1   0
  0.3386168E+02  0.7529542E-09  0.7529542E-09  0.2620742E-08  0.5000000E-15
  1.000000000000000E-004
  CAR 
 unknown system                          
     11.66760982    -75.83295743  301     -1.06476747      1.00000000
    -75.833  0.0000E+00  0.0000E+00
    -75.541  0.0000E+00  0.0000E+00
    -75.250  0.0000E+00  0.0000E+00
    -74.958  0.0000E+00  0.0000E+00
    -74.666  0.0000E+00  0.0000E+00
    -74.375  0.0000E+00  0.0000E+00
    -74.083  0.0000E+00  0.0000E+00
    -73.791  0.0000E+00  0.0000E+00
    -73.500  0.0000E+00  0.0000E+00
    -73.208  0.0000E+00  0.0000E+00
    -72.916  0.0000E+00  0.0000E+00
    -72.625  0.0000E+00  0.0000E+00
    -72.333  0.4434E-12  0.1293E-12
    -72.041  0.4628E-03  0.1350E-03
    -71.750  0.2364E+00  0.6910E-01
    -71.458  0.4089E+00  0.1884E+00
    -71.166  0.7954E+00  0.4204E+00
    -70.875  0.2449E+01  0.1135E+01
    -70.583  0.1044E+01  0.1439E+01
    -70.291  0.2514E-02  0.1440E+01
    -70.000  0.2084E-10  0.1440E+01
    -69.708  0.0000E+00  0.1440E+01
    -69.416  0.0000E+00  0.1440E+01
    -69.125  0.0000E+00  0.1440E+01
    -68.833  0.0000E+00  0.1440E+01
    -68.541  0.0000E+00  0.1440E+01
    -68.250  0.0000E+00  0.1440E+01
    -67.958  0.0000E+00  0.1440E+01
    -67.666  0.0000E+00  0.1440E+01
    -67.375  0.0000E+00  0.1440E+01
    -67.083  0.0000E+00  0.1440E+01
    -66.791  0.0000E+00  0.1440E+01
    -66.500  0.0000E+00  0.1440E+01
    -66.208  0.0000E+00  0.1440E+01
    -65.916  0.0000E+00  0.1440E+01
    -65.625  0.0000E+00  0.1440E+01
    -65.333  0.0000E+00  0.1440E+01
    -65.041  0.0000E+00  0.1440E+01
    -64.750  0.0000E+00  0.1440E+01
    -64.458  0.0000E+00  0.1440E+01
    -64.166  0.0000E+00  0.1440E+01
    -63.875  0.0000E+00  0.1440E+01
    -63.583  0.0000E+00  0.1440E+01
    -63.291  0.0000E+00  0.1440E+01
    -63.000  0.0000E+00  0.1440E+01
    -62.708  0.0000E+00  0.1440E+01
    -62.416  0.0000E+00  0.1440E+01
    -62.125  0.0000E+00  0.1440E+01
    -61.833  0.0000E+00  0.1440E+01
    -61.541  0.0000E+00  0.1440E+01
    -61.250  0.0000E+00  0.1440E+01
    -60.958  0.0000E+00  0.1440E+01
    -60.666  0.0000E+00  0.1440E+01
    -60.375  0.0000E+00  0.1440E+01
    -60.083  0.0000E+00  0.1440E+01
    -59.791  0.0000E+00  0.1440E+01
    -59.500  0.0000E+00  0.1440E+01
    -59.208  0.0000E+00  0.1440E+01
    -58.916  0.0000E+00  0.1440E+01
    -58.625  0.0000E+00  0.1440E+01
    -58.333  0.0000E+00  0.1440E+01
    -58.041  0.0000E+00  0.1440E+01
    -57.750  0.0000E+00  0.1440E+01
    -57.458  0.0000E+00  0.1440E+01
    -57.166  0.0000E+00  0.1440E+01
    -56.875  0.0000E+00  0.1440E+01
    -56.583  0.0000E+00  0.1440E+01
    -56.291  0.0000E+00  0.1440E+01
    -55.999  0.0000E+00  0.1440E+01
    -55.708  0.0000E+00  0.1440E+01
    -55.416  0.0000E+00  0.1440E+01
    -55.124  0.0000E+00  0.1440E+01
    -54.833  0.0000E+00  0.1440E+01
    -54.541  0.0000E+00  0.1440E+01
    -54.249  0.0000E+00  0.1440E+01
    -53.958  0.0000E+00  0.1440E+01
    -53.666  0.0000E+00  0.1440E+01
    -53.374  0.0000E+00  0.1440E+01
    -53.083  0.0000E+00  0.1440E+01
    -52.791  0.0000E+00  0.1440E+01
    -52.499  0.0000E+00  0.1440E+01
    -52.208  0.0000E+00  0.1440E+01
    -51.916  0.0000E+00  0.1440E+01
    -51.624  0.0000E+00  0.1440E+01
    -51.333  0.0000E+00  0.1440E+01
    -51.041  0.0000E+00  0.1440E+01
    -50.749  0.0000E+00  0.1440E+01
    -50.458  0.0000E+00  0.1440E+01
    -50.166  0.0000E+00  0.1440E+01
    -49.874  0.0000E+00  0.1440E+01
    -49.583  0.0000E+00  0.1440E+01
    -49.291  0.0000E+00  0.1440E+01
    -48.999  0.0000E+00  0.1440E+01
    -48.708  0.0000E+00  0.1440E+01
    -48.416  0.0000E+00  0.1440E+01
    -48.124  0.0000E+00  0.1440E+01
    -47.833  0.0000E+00  0.1440E+01
    -47.541  0.0000E+00  0.1440E+01
    -47.249  0.0000E+00  0.1440E+01
    -46.958  0.0000E+00  0.1440E+01
    -46.666  0.0000E+00  0.1440E+01
    -46.374  0.0000E+00  0.1440E+01
    -46.083  0.0000E+00  0.1440E+01
    -45.791  0.0000E+00  0.1440E+01
    -45.499  0.0000E+00  0.1440E+01
    -45.208  0.0000E+00  0.1440E+01
    -44.916  0.0000E+00  0.1440E+01
    -44.624  0.0000E+00  0.1440E+01
    -44.333  0.0000E+00  0.1440E+01
    -44.041  0.0000E+00  0.1440E+01
    -43.749  0.0000E+00  0.1440E+01
    -43.458  0.0000E+00  0.1440E+01
    -43.166  0.0000E+00  0.1440E+01
    -42.874  0.0000E+00  0.1440E+01
    -42.583  0.0000E+00  0.1440E+01
    -42.291  0.0000E+00  0.1440E+01
    -41.999  0.0000E+00  0.1440E+01
    -41.708  0.0000E+00  0.1440E+01
    -41.416  0.0000E+00  0.1440E+01
    -41.124  0.0000E+00  0.1440E+01
    -40.833  0.0000E+00  0.1440E+01
    -40.541  0.0000E+00  0.1440E+01
    -40.249  0.0000E+00  0.1440E+01
    -39.958  0.0000E+00  0.1440E+01
    -39.666  0.0000E+00  0.1440E+01
    -39.374  0.0000E+00  0.1440E+01
    -39.083  0.0000E+00  0.1440E+01
    -38.791  0.0000E+00  0.1440E+01
    -38.499  0.0000E+00  0.1440E+01
    -38.208  0.0000E+00  0.1440E+01
    -37.916  0.0000E+00  0.1440E+01
    -37.624  0.0000E+00  0.1440E+01
    -37.333  0.0000E+00  0.1440E+01
    -37.041  0.0000E+00  0.1440E+01
    -36.749  0.0000E+00  0.1440E+01
    -36.458  0.0000E+00  0.1440E+01
    -36.166  0.0000E+00  0.1440E+01
    -35.874  0.0000E+00  0.1440E+01
    -35.583  0.0000E+00  0.1440E+01
    -35.291  0.0000E+00  0.1440E+01
    -34.999  0.0000E+00  0.1440E+01
    -34.708  0.0000E+00  0.1440E+01
    -34.416  0.0000E+00  0.1440E+01
    -34.124  0.0000E+00  0.1440E+01
    -33.833  0.0000E+00  0.1440E+01
    -33.541  0.0000E+00  0.1440E+01
    -33.249  0.0000E+00  0.1440E+01
    -32.958  0.0000E+00  0.1440E+01
    -32.666  0.0000E+00  0.1440E+01
    -32.374  0.0000E+00  0.1440E+01
    -32.083  0.0000E+00  0.1440E+01
    -31.791  0.0000E+00  0.1440E+01
    -31.499  0.0000E+00  0.1440E+01
    -31.208  0.0000E+00  0.1440E+01
    -30.916  0.0000E+00  0.1440E+01
    -30.624  0.0000E+00  0.1440E+01
    -30.333  0.0000E+00  0.1440E+01
    -30.041  0.0000E+00  0.1440E+01
    -29.749  0.0000E+00  0.1440E+01
    -29.458  0.0000E+00  0.1440E+01
    -29.166  0.0000E+00  0.1440E+01
    -28.874  0.0000E+00  0.1440E+01
    -28.583  0.0000E+00  0.1440E+01
    -28.291  0.0000E+00  0.1440E+01
    -27.999  0.0000E+00  0.1440E+01
    -27.708  0.0000E+00  0.1440E+01
    -27.416  0.0000E+00  0.1440E+01
    -27.124  0.0000E+00  0.1440E+01
    -26.833  0.0000E+00  0.1440E+01
    -26.541  0.0000E+00  0.1440E+01
    -26.249  0.0000E+00  0.1440E+01
    -25.958  0.0000E+00  0.1440E+01
    -25.666  0.0000E+00  0.1440E+01
    -25.374  0.0000E+00  0.1440E+01
    -25.083  0.0000E+00  0.1440E+01
    -24.791  0.0000E+00  0.1440E+01
    -24.499  0.0000E+00  0.1440E+01
    -24.208  0.0000E+00  0.1440E+01
    -23.916  0.0000E+00  0.1440E+01
    -23.624  0.0000E+00  0.1440E+01
    -23.333  0.0000E+00  0.1440E+01
    -23.041  0.0000E+00  0.1440E+01
    -22.749  0.0000E+00  0.1440E+01
    -22.458  0.0000E+00  0.1440E+01
    -22.166  0.0000E+00  0.1440E+01
    -21.874  0.0000E+00  0.1440E+01
    -21.583  0.0000E+00  0.1440E+01
    -21.291  0.0000E+00  0.1440E+01
    -20.999  0.0000E+00  0.1440E+01
    -20.708  0.0000E+00  0.1440E+01
    -20.416  0.0000E+00  0.1440E+01
    -20.124  0.0000E+00  0.1440E+01
    -19.833  0.0000E+00  0.1440E+01
    -19.541  0.0000E+00  0.1440E+01
    -19.249  0.0000E+00  0.1440E+01
    -18.958  0.0000E+00  0.1440E+01
    -18.666  0.0000E+00  0.1440E+01
    -18.374  0.0000E+00  0.1440E+01
    -18.083  0.0000E+00  0.1440E+01
    -17.791  0.0000E+00  0.1440E+01
    -17.499  0.0000E+00  0.1440E+01
    -17.208  0.0000E+00  0.1440E+01
    -16.916  0.0000E+00  0.1440E+01
    -16.624  0.0000E+00  0.1440E+01
    -16.333  0.0000E+00  0.1440E+01
    -16.041  0.0000E+00  0.1440E+01
    -15.749  0.0000E+00  0.1440E+01
    -15.458  0.0000E+00  0.1440E+01
    -15.166  0.0000E+00  0.1440E+01
    -14.874  0.0000E+00  0.1440E+01
    -14.583  0.0000E+00  0.1440E+01
    -14.291  0.0000E+00  0.1440E+01
    -13.999  0.0000E+00  0.1440E+01
    -13.708  0.0000E+00  0.1440E+01
    -13.416  0.0000E+00  0.1440E+01
    -13.124  0.0000E+00  0.1440E+01
    -12.833  0.1533E-10  0.1440E+01
    -12.541  0.2950E-03  0.1440E+01
    -12.249  0.3806E-01  0.1451E+01
    -11.958  0.5123E-01  0.1466E+01
    -11.666  0.1841E-02  0.1467E+01
    -11.374  0.1234E-08  0.1467E+01
    -11.083  0.0000E+00  0.1467E+01
    -10.791  0.6185E-17  0.1467E+01
    -10.499  0.2844E-06  0.1467E+01
    -10.208  0.1946E-02  0.1467E+01
     -9.916  0.1685E-01  0.1472E+01
     -9.624  0.7157E-02  0.1474E+01
     -9.333  0.2379E-01  0.1481E+01
     -9.041  0.4556E-02  0.1483E+01
     -8.749  0.2313E-01  0.1489E+01
     -8.458  0.3264E-01  0.1499E+01
     -8.166  0.3449E-01  0.1509E+01
     -7.874  0.1871E-01  0.1514E+01
     -7.583  0.5907E-01  0.1532E+01
     -7.291  0.4164E-01  0.1544E+01
     -6.999  0.3057E-01  0.1553E+01
     -6.708  0.9077E-01  0.1579E+01
     -6.416  0.1068E+00  0.1610E+01
     -6.124  0.1786E+00  0.1662E+01
     -5.833  0.2838E+00  0.1745E+01
     -5.541  0.3115E+00  0.1836E+01
     -5.249  0.5034E+00  0.1983E+01
     -4.957  0.4752E+00  0.2121E+01
     -4.666  0.5133E+00  0.2271E+01
     -4.374  0.5993E+00  0.2446E+01
     -4.082  0.7894E+00  0.2676E+01
     -3.791  0.9471E+00  0.2952E+01
     -3.499  0.6907E+00  0.3154E+01
     -3.207  0.7912E+00  0.3385E+01
     -2.916  0.8213E+00  0.3624E+01
     -2.624  0.9990E+00  0.3916E+01
     -2.332  0.3050E+00  0.4004E+01
     -2.041  0.1237E+00  0.4041E+01
     -1.749  0.9370E-01  0.4068E+01
     -1.457  0.7976E-01  0.4091E+01
     -1.166  0.1039E+00  0.4121E+01
     -0.874  0.9767E-01  0.4150E+01
     -0.582  0.8261E-01  0.4174E+01
     -0.291  0.7554E-01  0.4196E+01
      0.001  0.8776E-01  0.4222E+01
      0.293  0.6250E-01  0.4240E+01
      0.584  0.1001E+00  0.4269E+01
      0.876  0.8424E-01  0.4294E+01
      1.168  0.3217E-01  0.4303E+01
      1.459  0.8712E-01  0.4328E+01
      1.751  0.8481E-01  0.4353E+01
      2.043  0.5054E-01  0.4368E+01
      2.334  0.3950E-01  0.4379E+01
      2.626  0.6911E-01  0.4400E+01
      2.918  0.4485E-01  0.4413E+01
      3.209  0.4374E-01  0.4425E+01
      3.501  0.7131E-01  0.4446E+01
      3.793  0.9555E-01  0.4474E+01
      4.084  0.7026E-01  0.4495E+01
      4.376  0.7971E-01  0.4518E+01
      4.668  0.1149E+00  0.4551E+01
      4.959  0.1119E+00  0.4584E+01
      5.251  0.1195E+00  0.4619E+01
      5.543  0.1370E+00  0.4659E+01
      5.834  0.1223E+00  0.4695E+01
      6.126  0.1349E+00  0.4734E+01
      6.418  0.1350E+00  0.4773E+01
      6.709  0.1533E+00  0.4818E+01
      7.001  0.1318E+00  0.4856E+01
      7.293  0.1420E+00  0.4898E+01
      7.584  0.1487E+00  0.4941E+01
      7.876  0.6427E-01  0.4960E+01
      8.168  0.1227E-03  0.4960E+01
      8.459  0.1597E-12  0.4960E+01
      8.751  0.0000E+00  0.4960E+01
      9.043  0.0000E+00  0.4960E+01
      9.334  0.0000E+00  0.4960E+01
      9.626  0.0000E+00  0.4960E+01
      9.918  0.0000E+00  0.4960E+01
     10.209  0.0000E+00  0.4960E+01
     10.501  0.0000E+00  0.4960E+01
     10.793  0.0000E+00  0.4960E+01
     11.084  0.0000E+00  0.4960E+01
     11.376  0.0000E+00  0.4960E+01
     11.668  0.0000E+00  0.4960E+01
     11.66760982    -75.83295743  301     -1.06476747      1.00000000
    -75.833  0.0000E+00  0.0000E+00  0.0000E+00
    -75.541  0.0000E+00  0.0000E+00  0.0000E+00
    -75.250  0.0000E+00  0.0000E+00  0.0000E+00
    -74.958  0.0000E+00  0.0000E+00  0.0000E+00
    -74.666  0.0000E+00  0.0000E+00  0.0000E+00
    -74.375  0.0000E+00  0.0000E+00  0.0000E+00
    -74.083  0.0000E+00  0.0000E+00  0.0000E+00
    -73.791  0.0000E+00  0.0000E+00  0.0000E+00
    -73.500  0.0000E+00  0.0000E+00  0.0000E+00
    -73.208  0.0000E+00  0.0000E+00  0.0000E+00
    -72.916  0.0000E+00  0.0000E+00  0.0000E+00
    -72.625  0.0000E+00  0.0000E+00  0.0000E+00
    -72.333  0.3123E-21  0.1006E-18  0.4764E-19
    -72.041  0.4002E-12  0.1074E-09  0.4267E-10
    -71.750  0.2015E-09  0.5882E-07  0.1910E-07
    -71.458  0.7468E-09  0.1104E-05  0.3195E-07
    -71.166  0.5246E-05  0.2779E-01  0.9187E-05
    -70.875  0.2208E-04  0.8443E+01  0.4646E-04
    -70.583  0.1884E-04  0.1203E+02  0.2554E-04
    -70.291  0.1342E-07  0.7353E-02  0.4293E-08
    -70.000  0.1724E-17  0.8454E-12  0.4919E-17
    -69.708  0.0000E+00  0.0000E+00  0.0000E+00
    -69.416  0.0000E+00  0.0000E+00  0.0000E+00
    -69.125  0.0000E+00  0.0000E+00  0.0000E+00
    -68.833  0.0000E+00  0.0000E+00  0.0000E+00
    -68.541  0.0000E+00  0.0000E+00  0.0000E+00
    -68.250  0.0000E+00  0.0000E+00  0.0000E+00
    -67.958  0.0000E+00  0.0000E+00  0.0000E+00
    -67.666  0.0000E+00  0.0000E+00  0.0000E+00
    -67.375  0.0000E+00  0.0000E+00  0.0000E+00
    -67.083  0.0000E+00  0.0000E+00  0.0000E+00
    -66.791  0.0000E+00  0.0000E+00  0.0000E+00
    -66.500  0.0000E+00  0.0000E+00  0.0000E+00
    -66.208  0.0000E+00  0.0000E+00  0.0000E+00
    -65.916  0.0000E+00  0.0000E+00  0.0000E+00
    -65.625  0.0000E+00  0.0000E+00  0.0000E+00
    -65.333  0.0000E+00  0.0000E+00  0.0000E+00
    -65.041  0.0000E+00  0.0000E+00  0.0000E+00
    -64.750  0.0000E+00  0.0000E+00  0.0000E+00
    -64.458  0.0000E+00  0.0000E+00  0.0000E+00
    -64.166  0.0000E+00  0.0000E+00  0.0000E+00
    -63.875  0.0000E+00  0.0000E+00  0.0000E+00
    -63.583  0.0000E+00  0.0000E+00  0.0000E+00
    -63.291  0.0000E+00  0.0000E+00  0.0000E+00
    -63.000  0.0000E+00  0.0000E+00  0.0000E+00
    -62.708  0.0000E+00  0.0000E+00  0.0000E+00
    -62.416  0.0000E+00  0.0000E+00  0.0000E+00
    -62.125  0.0000E+00  0.0000E+00  0.0000E+00
    -61.833  0.0000E+00  0.0000E+00  0.0000E+00
    -61.541  0.0000E+00  0.0000E+00  0.0000E+00
    -61.250  0.0000E+00  0.0000E+00  0.0000E+00
    -60.958  0.0000E+00  0.0000E+00  0.0000E+00
    -60.666  0.0000E+00  0.0000E+00  0.0000E+00
    -60.375  0.0000E+00  0.0000E+00  0.0000E+00
    -60.083  0.0000E+00  0.0000E+00  0.0000E+00
    -59.791  0.0000E+00  0.0000E+00  0.0000E+00
    -59.500  0.0000E+00  0.0000E+00  0.0000E+00
    -59.208  0.0000E+00  0.0000E+00  0.0000E+00
    -58.916  0.0000E+00  0.0000E+00  0.0000E+00
    -58.625  0.0000E+00  0.0000E+00  0.0000E+00
    -58.333  0.0000E+00  0.0000E+00  0.0000E+00
    -58.041  0.0000E+00  0.0000E+00  0.0000E+00
    -57.750  0.0000E+00  0.0000E+00  0.0000E+00
    -57.458  0.0000E+00  0.0000E+00  0.0000E+00
    -57.166  0.0000E+00  0.0000E+00  0.0000E+00
    -56.875  0.0000E+00  0.0000E+00  0.0000E+00
    -56.583  0.0000E+00  0.0000E+00  0.0000E+00
    -56.291  0.0000E+00  0.0000E+00  0.0000E+00
    -55.999  0.0000E+00  0.0000E+00  0.0000E+00
    -55.708  0.0000E+00  0.0000E+00  0.0000E+00
    -55.416  0.0000E+00  0.0000E+00  0.0000E+00
    -55.124  0.0000E+00  0.0000E+00  0.0000E+00
    -54.833  0.0000E+00  0.0000E+00  0.0000E+00
    -54.541  0.0000E+00  0.0000E+00  0.0000E+00
    -54.249  0.0000E+00  0.0000E+00  0.0000E+00
    -53.958  0.0000E+00  0.0000E+00  0.0000E+00
    -53.666  0.0000E+00  0.0000E+00  0.0000E+00
    -53.374  0.0000E+00  0.0000E+00  0.0000E+00
    -53.083  0.0000E+00  0.0000E+00  0.0000E+00
    -52.791  0.0000E+00  0.0000E+00  0.0000E+00
    -52.499  0.0000E+00  0.0000E+00  0.0000E+00
    -52.208  0.0000E+00  0.0000E+00  0.0000E+00
    -51.916  0.0000E+00  0.0000E+00  0.0000E+00
    -51.624  0.0000E+00  0.0000E+00  0.0000E+00
    -51.333  0.0000E+00  0.0000E+00  0.0000E+00
    -51.041  0.0000E+00  0.0000E+00  0.0000E+00
    -50.749  0.0000E+00  0.0000E+00  0.0000E+00
    -50.458  0.0000E+00  0.0000E+00  0.0000E+00
    -50.166  0.0000E+00  0.0000E+00  0.0000E+00
    -49.874  0.0000E+00  0.0000E+00  0.0000E+00
    -49.583  0.0000E+00  0.0000E+00  0.0000E+00
    -49.291  0.0000E+00  0.0000E+00  0.0000E+00
    -48.999  0.0000E+00  0.0000E+00  0.0000E+00
    -48.708  0.0000E+00  0.0000E+00  0.0000E+00
    -48.416  0.0000E+00  0.0000E+00  0.0000E+00
    -48.124  0.0000E+00  0.0000E+00  0.0000E+00
    -47.833  0.0000E+00  0.0000E+00  0.0000E+00
    -47.541  0.0000E+00  0.0000E+00  0.0000E+00
    -47.249  0.0000E+00  0.0000E+00  0.0000E+00
    -46.958  0.0000E+00  0.0000E+00  0.0000E+00
    -46.666  0.0000E+00  0.0000E+00  0.0000E+00
    -46.374  0.0000E+00  0.0000E+00  0.0000E+00
    -46.083  0.0000E+00  0.0000E+00  0.0000E+00
    -45.791  0.0000E+00  0.0000E+00  0.0000E+00
    -45.499  0.0000E+00  0.0000E+00  0.0000E+00
    -45.208  0.0000E+00  0.0000E+00  0.0000E+00
    -44.916  0.0000E+00  0.0000E+00  0.0000E+00
    -44.624  0.0000E+00  0.0000E+00  0.0000E+00
    -44.333  0.0000E+00  0.0000E+00  0.0000E+00
    -44.041  0.0000E+00  0.0000E+00  0.0000E+00
    -43.749  0.0000E+00  0.0000E+00  0.0000E+00
    -43.458  0.0000E+00  0.0000E+00  0.0000E+00
    -43.166  0.0000E+00  0.0000E+00  0.0000E+00
    -42.874  0.0000E+00  0.0000E+00  0.0000E+00
    -42.583  0.0000E+00  0.0000E+00  0.0000E+00
    -42.291  0.0000E+00  0.0000E+00  0.0000E+00
    -41.999  0.0000E+00  0.0000E+00  0.0000E+00
    -41.708  0.0000E+00  0.0000E+00  0.0000E+00
    -41.416  0.0000E+00  0.0000E+00  0.0000E+00
    -41.124  0.0000E+00  0.0000E+00  0.0000E+00
    -40.833  0.0000E+00  0.0000E+00  0.0000E+00
    -40.541  0.0000E+00  0.0000E+00  0.0000E+00
    -40.249  0.0000E+00  0.0000E+00  0.0000E+00
    -39.958  0.0000E+00  0.0000E+00  0.0000E+00
    -39.666  0.0000E+00  0.0000E+00  0.0000E+00
    -39.374  0.0000E+00  0.0000E+00  0.0000E+00
    -39.083  0.0000E+00  0.0000E+00  0.0000E+00
    -38.791  0.0000E+00  0.0000E+00  0.0000E+00
    -38.499  0.0000E+00  0.0000E+00  0.0000E+00
    -38.208  0.0000E+00  0.0000E+00  0.0000E+00
    -37.916  0.0000E+00  0.0000E+00  0.0000E+00
    -37.624  0.0000E+00  0.0000E+00  0.0000E+00
    -37.333  0.0000E+00  0.0000E+00  0.0000E+00
    -37.041  0.0000E+00  0.0000E+00  0.0000E+00
    -36.749  0.0000E+00  0.0000E+00  0.0000E+00
    -36.458  0.0000E+00  0.0000E+00  0.0000E+00
    -36.166  0.0000E+00  0.0000E+00  0.0000E+00
    -35.874  0.0000E+00  0.0000E+00  0.0000E+00
    -35.583  0.0000E+00  0.0000E+00  0.0000E+00
    -35.291  0.0000E+00  0.0000E+00  0.0000E+00
    -34.999  0.0000E+00  0.0000E+00  0.0000E+00
    -34.708  0.0000E+00  0.0000E+00  0.0000E+00
    -34.416  0.0000E+00  0.0000E+00  0.0000E+00
    -34.124  0.0000E+00  0.0000E+00  0.0000E+00
    -33.833  0.0000E+00  0.0000E+00  0.0000E+00
    -33.541  0.0000E+00  0.0000E+00  0.0000E+00
    -33.249  0.0000E+00  0.0000E+00  0.0000E+00
    -32.958  0.0000E+00  0.0000E+00  0.0000E+00
    -32.666  0.0000E+00  0.0000E+00  0.0000E+00
    -32.374  0.0000E+00  0.0000E+00  0.0000E+00
    -32.083  0.0000E+00  0.0000E+00  0.0000E+00
    -31.791  0.0000E+00  0.0000E+00  0.0000E+00
    -31.499  0.0000E+00  0.0000E+00  0.0000E+00
    -31.208  0.0000E+00  0.0000E+00  0.0000E+00
    -30.916  0.0000E+00  0.0000E+00  0.0000E+00
    -30.624  0.0000E+00  0.0000E+00  0.0000E+00
    -30.333  0.0000E+00  0.0000E+00  0.0000E+00
    -30.041  0.0000E+00  0.0000E+00  0.0000E+00
    -29.749  0.0000E+00  0.0000E+00  0.0000E+00
    -29.458  0.0000E+00  0.0000E+00  0.0000E+00
    -29.166  0.0000E+00  0.0000E+00  0.0000E+00
    -28.874  0.0000E+00  0.0000E+00  0.0000E+00
    -28.583  0.0000E+00  0.0000E+00  0.0000E+00
    -28.291  0.0000E+00  0.0000E+00  0.0000E+00
    -27.999  0.0000E+00  0.0000E+00  0.0000E+00
    -27.708  0.0000E+00  0.0000E+00  0.0000E+00
    -27.416  0.0000E+00  0.0000E+00  0.0000E+00
    -27.124  0.0000E+00  0.0000E+00  0.0000E+00
    -26.833  0.0000E+00  0.0000E+00  0.0000E+00
    -26.541  0.0000E+00  0.0000E+00  0.0000E+00
    -26.249  0.0000E+00  0.0000E+00  0.0000E+00
    -25.958  0.0000E+00  0.0000E+00  0.0000E+00
    -25.666  0.0000E+00  0.0000E+00  0.0000E+00
    -25.374  0.0000E+00  0.0000E+00  0.0000E+00
    -25.083  0.0000E+00  0.0000E+00  0.0000E+00
    -24.791  0.0000E+00  0.0000E+00  0.0000E+00
    -24.499  0.0000E+00  0.0000E+00  0.0000E+00
    -24.208  0.0000E+00  0.0000E+00  0.0000E+00
    -23.916  0.0000E+00  0.0000E+00  0.0000E+00
    -23.624  0.0000E+00  0.0000E+00  0.0000E+00
    -23.333  0.0000E+00  0.0000E+00  0.0000E+00
    -23.041  0.0000E+00  0.0000E+00  0.0000E+00
    -22.749  0.0000E+00  0.0000E+00  0.0000E+00
    -22.458  0.0000E+00  0.0000E+00  0.0000E+00
    -22.166  0.0000E+00  0.0000E+00  0.0000E+00
    -21.874  0.0000E+00  0.0000E+00  0.0000E+00
    -21.583  0.0000E+00  0.0000E+00  0.0000E+00
    -21.291  0.0000E+00  0.0000E+00  0.0000E+00
    -20.999  0.0000E+00  0.0000E+00  0.0000E+00
    -20.708  0.0000E+00  0.0000E+00  0.0000E+00
    -20.416  0.0000E+00  0.0000E+00  0.0000E+00
    -20.124  0.0000E+00  0.0000E+00  0.0000E+00
    -19.833  0.0000E+00  0.0000E+00  0.0000E+00
    -19.541  0.0000E+00  0.0000E+00  0.0000E+00
    -19.249  0.0000E+00  0.0000E+00  0.0000E+00
    -18.958  0.0000E+00  0.0000E+00  0.0000E+00
    -18.666  0.0000E+00  0.0000E+00  0.0000E+00
    -18.374  0.0000E+00  0.0000E+00  0.0000E+00
    -18.083  0.0000E+00  0.0000E+00  0.0000E+00
    -17.791  0.0000E+00  0.0000E+00  0.0000E+00
    -17.499  0.0000E+00  0.0000E+00  0.0000E+00
    -17.208  0.0000E+00  0.0000E+00  0.0000E+00
    -16.916  0.0000E+00  0.0000E+00  0.0000E+00
    -16.624  0.0000E+00  0.0000E+00  0.0000E+00
    -16.333  0.0000E+00  0.0000E+00  0.0000E+00
    -16.041  0.0000E+00  0.0000E+00  0.0000E+00
    -15.749  0.0000E+00  0.0000E+00  0.0000E+00
    -15.458  0.0000E+00  0.0000E+00  0.0000E+00
    -15.166  0.0000E+00  0.0000E+00  0.0000E+00
    -14.874  0.0000E+00  0.0000E+00  0.0000E+00
    -14.583  0.0000E+00  0.0000E+00  0.0000E+00
    -14.291  0.0000E+00  0.0000E+00  0.0000E+00
    -13.999  0.0000E+00  0.0000E+00  0.0000E+00
    -13.708  0.0000E+00  0.0000E+00  0.0000E+00
    -13.416  0.0000E+00  0.0000E+00  0.0000E+00
    -13.124  0.0000E+00  0.0000E+00  0.0000E+00
    -12.833  0.8657E-14  0.1656E-14  0.1888E-15
    -12.541  0.1376E-06  0.2745E-07  0.3929E-08
    -12.249  0.9626E-05  0.2163E-05  0.5110E-06
    -11.958  0.2281E-05  0.6813E-06  0.3252E-06
    -11.666  0.1183E-07  0.4923E-08  0.4254E-08
    -11.374  0.1944E-14  0.8330E-15  0.1112E-14
    -11.083  0.0000E+00  0.0000E+00  0.0000E+00
    -10.791  0.5676E-17  0.4994E-18  0.5035E-20
    -10.499  0.2610E-06  0.2296E-07  0.2315E-09
    -10.208  0.1782E-02  0.1580E-03  0.2061E-05
     -9.916  0.1476E-01  0.1566E-02  0.1241E-03
     -9.624  0.5730E-02  0.7976E-03  0.1669E-03
     -9.333  0.1838E-01  0.2842E-02  0.7737E-03
     -9.041  0.2972E-02  0.5888E-03  0.2300E-03
     -8.749  0.1522E-01  0.3051E-02  0.2105E-02
     -8.458  0.4078E-01  0.4002E-02  0.3185E-02
     -8.166  0.4360E-01  0.5375E-02  0.4151E-02
     -7.874  0.2259E-01  0.2987E-02  0.2367E-02
     -7.583  0.3223E-01  0.1036E-01  0.1433E-01
     -7.291  0.4406E-01  0.8977E-02  0.9840E-02
     -6.999  0.2945E-01  0.4617E-02  0.1570E-01
     -6.708  0.8564E-01  0.1411E-01  0.5237E-01
     -6.416  0.5262E-01  0.1583E-01  0.7030E-01
     -6.124  0.5541E-01  0.1942E-01  0.1202E+00
     -5.833  0.9800E-01  0.2736E-01  0.2815E+00
     -5.541  0.7347E-01  0.2927E-01  0.4059E+00
     -5.249  0.7926E-01  0.2757E-01  0.9101E+00
     -4.957  0.2301E-01  0.2462E-01  0.1074E+01
     -4.666  0.1328E-01  0.2433E-01  0.1438E+01
     -4.374  0.1841E-01  0.1954E-01  0.1467E+01
     -4.082  0.2401E-01  0.2990E-01  0.2550E+01
     -3.791  0.3785E-01  0.5458E-01  0.4464E+01
     -3.499  0.1986E-01  0.4340E-01  0.2811E+01
     -3.207  0.3070E-01  0.4770E-01  0.3590E+01
     -2.916  0.1775E-01  0.2655E-01  0.3629E+01
     -2.624  0.2579E-01  0.2222E-01  0.5074E+01
     -2.332  0.1641E-01  0.1436E-01  0.1462E+01
     -2.041  0.3007E-01  0.1792E-01  0.4108E+00
     -1.749  0.3206E-01  0.2589E-01  0.2301E+00
     -1.457  0.1164E-01  0.2543E-01  0.1050E+00
     -1.166  0.4174E-01  0.4365E-01  0.1615E+00
     -0.874  0.2611E-01  0.4584E-01  0.1540E+00
     -0.582  0.2469E-01  0.3834E-01  0.1594E+00
     -0.291  0.3796E-01  0.3590E-01  0.9248E-01
      0.001  0.2405E-01  0.7373E-01  0.9092E-01
      0.293  0.1746E-01  0.4625E-01  0.5931E-01
      0.584  0.2527E-01  0.5855E-01  0.1249E+00
      0.876  0.1948E-01  0.7645E-01  0.8889E-01
      1.168  0.6697E-02  0.3517E-01  0.2350E-01
      1.459  0.2199E-01  0.8257E-01  0.7059E-01
      1.751  0.1831E-01  0.7006E-01  0.1010E+00
      2.043  0.7669E-02  0.2418E-01  0.4274E-01
      2.334  0.8376E-02  0.4123E-01  0.2353E-01
      2.626  0.7983E-02  0.4208E-01  0.4359E-01
      2.918  0.6537E-02  0.3904E-01  0.3735E-01
      3.209  0.4759E-02  0.3083E-01  0.3304E-01
      3.501  0.2435E-01  0.3093E-01  0.4382E-01
      3.793  0.3532E-01  0.4377E-01  0.5198E-01
      4.084  0.2549E-01  0.2133E-01  0.3783E-01
      4.376  0.3266E-01  0.2449E-01  0.4935E-01
      4.668  0.9343E-01  0.6352E-01  0.7596E-01
      4.959  0.9166E-01  0.3355E-01  0.6437E-01
      5.251  0.3507E-01  0.5317E-01  0.7771E-01
      5.543  0.7100E-01  0.8197E-01  0.8029E-01
      5.834  0.7790E-01  0.7408E-01  0.5795E-01
      6.126  0.3773E-01  0.6024E-01  0.5207E-01
      6.418  0.2005E-01  0.6306E-01  0.5607E-01
      6.709  0.5013E-01  0.6382E-01  0.5884E-01
      7.001  0.2995E-01  0.6452E-01  0.4377E-01
      7.293  0.4624E-01  0.6019E-01  0.4236E-01
      7.584  0.5894E-01  0.6937E-01  0.5205E-01
      7.876  0.1175E-01  0.2330E-01  0.3170E-01
      8.168  0.6472E-05  0.2719E-04  0.7435E-04
      8.459  0.5316E-14  0.2761E-13  0.1015E-12
      8.751  0.0000E+00  0.0000E+00  0.0000E+00
      9.043  0.0000E+00  0.0000E+00  0.0000E+00
      9.334  0.0000E+00  0.0000E+00  0.0000E+00
      9.626  0.0000E+00  0.0000E+00  0.0000E+00
      9.918  0.0000E+00  0.0000E+00  0.0000E+00
     10.209  0.0000E+00  0.0000E+00  0.0000E+00
     10.501  0.0000E+00  0.0000E+00  0.0000E+00
     10.793  0.0000E+00  0.0000E+00  0.0000E+00
     11.084  0.0000E+00  0.0000E+00  0.0000E+00
     11.376  0.0000E+00  0.0000E+00  0.0000E+00
     11.668  0.0000E+00  0.0000E+00  0.0000E+00
     11.66760982    -75.83295743  301     -1.06476747      1.00000000
    -75.833  0.0000E+00  0.0000E+00  0.0000E+00
    -75.541  0.0000E+00  0.0000E+00  0.0000E+00
    -75.250  0.0000E+00  0.0000E+00  0.0000E+00
    -74.958  0.0000E+00  0.0000E+00  0.0000E+00
    -74.666  0.0000E+00  0.0000E+00  0.0000E+00
    -74.375  0.0000E+00  0.0000E+00  0.0000E+00
    -74.083  0.0000E+00  0.0000E+00  0.0000E+00
    -73.791  0.0000E+00  0.0000E+00  0.0000E+00
    -73.500  0.0000E+00  0.0000E+00  0.0000E+00
    -73.208  0.0000E+00  0.0000E+00  0.0000E+00
    -72.916  0.0000E+00  0.0000E+00  0.0000E+00
    -72.625  0.0000E+00  0.0000E+00  0.0000E+00
    -72.333  0.4603E-21  0.9291E-19  0.4992E-19
    -72.041  0.5700E-12  0.1031E-09  0.4534E-10
    -71.750  0.2833E-09  0.5623E-07  0.2050E-07
    -71.458  0.7191E-09  0.1122E-05  0.3236E-07
    -71.166  0.5259E-05  0.2794E-01  0.9206E-05
    -70.875  0.2209E-04  0.8497E+01  0.4643E-04
    -70.583  0.1885E-04  0.1197E+02  0.2556E-04
    -70.291  0.1310E-07  0.7158E-02  0.4285E-08
    -70.000  0.2747E-18  0.1045E-12  0.4905E-17
    -69.708  0.0000E+00  0.0000E+00  0.0000E+00
    -69.416  0.0000E+00  0.0000E+00  0.0000E+00
    -69.125  0.0000E+00  0.0000E+00  0.0000E+00
    -68.833  0.0000E+00  0.0000E+00  0.0000E+00
    -68.541  0.0000E+00  0.0000E+00  0.0000E+00
    -68.250  0.0000E+00  0.0000E+00  0.0000E+00
    -67.958  0.0000E+00  0.0000E+00  0.0000E+00
    -67.666  0.0000E+00  0.0000E+00  0.0000E+00
    -67.375  0.0000E+00  0.0000E+00  0.0000E+00
    -67.083  0.0000E+00  0.0000E+00  0.0000E+00
    -66.791  0.0000E+00  0.0000E+00  0.0000E+00
    -66.500  0.0000E+00  0.0000E+00  0.0000E+00
    -66.208  0.0000E+00  0.0000E+00  0.0000E+00
    -65.916  0.0000E+00  0.0000E+00  0.0000E+00
    -65.625  0.0000E+00  0.0000E+00  0.0000E+00
    -65.333  0.0000E+00  0.0000E+00  0.0000E+00
    -65.041  0.0000E+00  0.0000E+00  0.0000E+00
    -64.750  0.0000E+00  0.0000E+00  0.0000E+00
    -64.458  0.0000E+00  0.0000E+00  0.0000E+00
    -64.166  0.0000E+00  0.0000E+00  0.0000E+00
    -63.875  0.0000E+00  0.0000E+00  0.0000E+00
    -63.583  0.0000E+00  0.0000E+00  0.0000E+00
    -63.291  0.0000E+00  0.0000E+00  0.0000E+00
    -63.000  0.0000E+00  0.0000E+00  0.0000E+00
    -62.708  0.0000E+00  0.0000E+00  0.0000E+00
    -62.416  0.0000E+00  0.0000E+00  0.0000E+00
    -62.125  0.0000E+00  0.0000E+00  0.0000E+00
    -61.833  0.0000E+00  0.0000E+00  0.0000E+00
    -61.541  0.0000E+00  0.0000E+00  0.0000E+00
    -61.250  0.0000E+00  0.0000E+00  0.0000E+00
    -60.958  0.0000E+00  0.0000E+00  0.0000E+00
    -60.666  0.0000E+00  0.0000E+00  0.0000E+00
    -60.375  0.0000E+00  0.0000E+00  0.0000E+00
    -60.083  0.0000E+00  0.0000E+00  0.0000E+00
    -59.791  0.0000E+00  0.0000E+00  0.0000E+00
    -59.500  0.0000E+00  0.0000E+00  0.0000E+00
    -59.208  0.0000E+00  0.0000E+00  0.0000E+00
    -58.916  0.0000E+00  0.0000E+00  0.0000E+00
    -58.625  0.0000E+00  0.0000E+00  0.0000E+00
    -58.333  0.0000E+00  0.0000E+00  0.0000E+00
    -58.041  0.0000E+00  0.0000E+00  0.0000E+00
    -57.750  0.0000E+00  0.0000E+00  0.0000E+00
    -57.458  0.0000E+00  0.0000E+00  0.0000E+00
    -57.166  0.0000E+00  0.0000E+00  0.0000E+00
    -56.875  0.0000E+00  0.0000E+00  0.0000E+00
    -56.583  0.0000E+00  0.0000E+00  0.0000E+00
    -56.291  0.0000E+00  0.0000E+00  0.0000E+00
    -55.999  0.0000E+00  0.0000E+00  0.0000E+00
    -55.708  0.0000E+00  0.0000E+00  0.0000E+00
    -55.416  0.0000E+00  0.0000E+00  0.0000E+00
    -55.124  0.0000E+00  0.0000E+00  0.0000E+00
    -54.833  0.0000E+00  0.0000E+00  0.0000E+00
    -54.541  0.0000E+00  0.0000E+00  0.0000E+00
    -54.249  0.0000E+00  0.0000E+00  0.0000E+00
    -53.958  0.0000E+00  0.0000E+00  0.0000E+00
    -53.666  0.0000E+00  0.0000E+00  0.0000E+00
    -53.374  0.0000E+00  0.0000E+00  0.0000E+00
    -53.083  0.0000E+00  0.0000E+00  0.0000E+00
    -52.791  0.0000E+00  0.0000E+00  0.0000E+00
    -52.499  0.0000E+00  0.0000E+00  0.0000E+00
    -52.208  0.0000E+00  0.0000E+00  0.0000E+00
    -51.916  0.0000E+00  0.0000E+00  0.0000E+00
    -51.624  0.0000E+00  0.0000E+00  0.0000E+00
    -51.333  0.0000E+00  0.0000E+00  0.0000E+00
    -51.041  0.0000E+00  0.0000E+00  0.0000E+00
    -50.749  0.0000E+00  0.0000E+00  0.0000E+00
    -50.458  0.0000E+00  0.0000E+00  0.0000E+00
    -50.166  0.0000E+00  0.0000E+00  0.0000E+00
    -49.874  0.0000E+00  0.0000E+00  0.0000E+00