   38   38  150    1
  0.3386168E+02  0.7529542E-09  0.7529542E-09  0.2620742E-08  0.5000000E-15
  1.000000000000000E-004
  CAR 
 unknown system                          
    620      7    372
 
  0.0000000E+00  0.0000000E+00  0.0000000E+00  0.6250000E-01
    1      -71.855193
    2      -71.835479
    3      -71.832818
    4      -71.828477
    5      -71.810411
    6      -71.810346
    7      -71.548891
    8      -71.548122
    9      -71.545382
   10      -71.512854
   11      -71.507502
   12      -71.507199
   13      -71.502587
   14      -71.500598
   15      -71.487979
   16      -71.436618
   17      -71.424506
   18      -71.424293
   19      -71.187818
   20      -71.184256
   21      -71.184217
   22      -71.183165
   23      -71.178557
   24      -71.178472
   25      -71.177210
   26      -71.177126
   27      -71.171183
   28      -71.171011
   29      -71.168048
   30      -71.152768
   31      -71.150560
   32      -71.150310
   33      -71.148841
   34      -71.148599
   35      -71.142630
   36      -71.126282
   37      -71.124434
   38      -71.123877
   39      -71.121925
   40      -71.121693
   41      -71.121536
   42      -71.116530
   43      -71.116391
   44      -71.115639
   45      -71.115323
   46      -71.112720
   47      -71.110000
   48      -71.103983
   49      -71.103950
   50      -71.101383
   51      -71.101198
   52      -71.091677
   53      -71.091595
   54      -71.086396
   55      -71.075749
   56      -71.065224
   57      -71.065029
   58      -71.063185
   59      -71.058953
   60      -71.058756
   61      -71.053693
   62      -71.043024
   63      -71.042876
   64      -71.041169
   65      -71.021025
   66      -71.018742
   67      -71.018436
   68      -71.013255
   69      -71.013201
   70      -70.997324
   71      -70.991954
   72      -70.991740
   73      -70.918637
   74      -70.918557
   75      -70.916457
   76      -70.916235
   77      -70.914317
   78      -70.910353
   79      -70.909247
   80      -70.909143
   81      -70.907437
   82      -70.899564
   83      -70.865514
   84      -70.862963
   85      -70.860931
   86      -70.860062
   87      -70.856993
   88      -70.856964
   89      -70.854678
   90      -70.853242
   91      -70.853159
   92      -70.840057
   93      -70.838271
   94      -70.838199
   95      -70.812414
   96      -70.807710
   97      -70.807580
   98      -70.806281
   99      -70.806064
  100      -70.805032
  101      -70.802862
  102      -70.802729
  103      -70.802295
  104      -70.799476
  105      -70.799194
  106      -70.739814
  107      -70.735424
  108      -70.735205
  109      -12.427748
  110      -12.015688
  111      -10.236144
  112       -8.744056
  113       -7.339824
  114       -7.339778
  115       -7.253592
  116       -7.234987
  117       -7.234618
  118       -7.167599
  119       -7.074125
  120       -6.761338
  121       -6.760915
  122       -6.585494
  123       -6.584112
  124       -6.487754
  125       -6.389027
  126       -6.359577
  127       -6.050213
  128       -6.048460
  129       -5.955950
  130       -5.954522
  131       -5.832831
  132       -5.751658
  133       -5.572315
  134       -5.570362
  135       -5.480938
  136       -5.478904
  137       -5.476414
  138       -5.461886
  139       -5.382865
  140       -5.382841
  141       -5.340223
  142       -5.336157
  143       -5.335372
  144       -5.331520
  145       -5.329556
  146       -5.291319
  147       -5.244800
  148       -5.190633
  149       -5.190138
  150       -5.183446
  151       -5.168485
  152       -5.152131
  153       -5.150940
  154       -5.150833
  155       -5.103129
  156       -5.102754
  157       -5.056185
  158       -5.054632
  159       -4.973722
  160       -4.973291
  161       -4.931067
  162       -4.930787
  163       -4.912916
  164       -4.886756
  165       -4.885381
  166       -4.868832
  167       -4.805800
  168       -4.804537
  169       -4.710037
  170       -4.619732
  171       -4.618329
  172       -4.604884
  173       -4.578171
  174       -4.577826
  175       -4.494261
  176       -4.492418
  177       -4.492177
  178       -4.482277
  179       -4.459590
  180       -4.454866
  181       -4.408352
  182       -4.364257
  183       -4.359852
  184       -4.349518
  185       -4.316006
  186       -4.292908
  187       -4.288771
  188       -4.286692
  189       -4.286329
  190       -4.218360
  191       -4.193947
  192       -4.191933
  193       -4.189077
  194       -4.163987
  195       -4.162464
  196       -4.144336
  197       -4.142797
  198       -4.093931
  199       -4.085094
  200       -4.084218
  201       -4.020347
  202       -3.995463
  203       -3.995270
  204       -3.969618
  205       -3.952405
  206       -3.952358
  207       -3.949629
  208       -3.939680
  209       -3.939447
  210       -3.920753
  211       -3.920145
  212       -3.899524
  213       -3.898112
  214       -3.891810
  215       -3.890126
  216       -3.888958
  217       -3.853212
  218       -3.852936
  219       -3.827792
  220       -3.825448
  221       -3.804624
  222       -3.769696
  223       -3.734665
  224       -3.734095
  225       -3.680273
  226       -3.671473
  227       -3.669888
  228       -3.642962
  229       -3.599115
  230       -3.538846
  231       -3.482509
  232       -3.481987
  233       -3.469894
  234       -3.469522
  235       -3.462311
  236       -3.435864
  237       -3.435534
  238       -3.425584
  239       -3.424239
  240       -3.399904
  241       -3.399742
  242       -3.342503
  243       -3.339588
  244       -3.321147
  245       -3.312115
  246       -3.310235
  247       -3.268943
  248       -3.268396
  249       -3.260628
  250       -3.258311
  251       -3.240758
  252       -3.211038
  253       -3.211007
  254       -3.163021
  255       -3.162818
  256       -3.150240
  257       -3.137286
  258       -3.135654
  259       -3.077312
  260       -3.077213
  261       -3.057136
  262       -3.029300
  263       -3.010544
  264       -3.009771
  265       -2.994835
  266       -2.987858
  267       -2.987750
  268       -2.982517
  269       -2.981908
  270       -2.959762
  271       -2.943493
  272       -2.928967
  273       -2.928671
  274       -2.927507
  275       -2.925747
  276       -2.904880
  277       -2.904586
  278       -2.894321
  279       -2.880018
  280       -2.879001
  281       -2.878077
  282       -2.863208
  283       -2.862876
  284       -2.841369
  285       -2.806327
  286       -2.805888
  287       -2.802839
  288       -2.802699
  289       -2.799436
  290       -2.794733
  291       -2.794105
  292       -2.790507
  293       -2.768669
  294       -2.767718
  295       -2.767489
  296       -2.766029
  297       -2.711279
  298       -2.709489
  299       -2.677079
  300       -2.676947
  301       -2.673137
  302       -2.655554
  303       -2.643624
  304       -2.642883
  305       -2.594240
  306       -1.973093
  307       -1.972510
  308       -1.962223
  309       -1.773203
  310       -1.771253
  311       -1.549684
  312       -1.291849
  313       -0.474042
  314       -0.473839
  315       -0.222803
  316       -0.222153
  317       -0.210987
  318        0.552329
  319        0.692929
  320        1.219852
  321        1.222858
  322        1.919162
  323        2.112780
  324        2.116687
  325        2.518930
  326        2.519582
  327        2.698763
  328        2.782652
  329        2.782774
  330        3.162038
  331        3.271810
  332        3.361380
  333        3.500644
  334        3.501805
  335        3.562123
  336        3.602823
  337        4.054524
  338        4.059497
  339        4.132608
  340        4.213951
  341        4.417746
  342        4.420596
  343        4.495463
  344        4.604976
  345        4.607049
  346        4.954995
  347        5.215840
  348        5.509315
  349        5.511836
  350        5.758892
  351        5.929025
  352        5.988002
  353        5.988163
  354        6.083194
  355        6.136827
  356        6.139123
  357        6.350207
  358        6.693905
  359        6.696609
  360        6.735856
  361        6.902576
  362        6.904559
  363        6.919564
  364        7.106747
  365        7.111272
  366        7.258812
  367        7.261172
  368        7.283091
  369        7.284887
  370        7.335182
  371        7.509733
  372        7.571602
 
  0.2500000E+00  0.5551115E-16  0.0000000E+00  0.2500000E+00
    1      -71.855317
    2      -71.835248
    3      -71.832684
    4      -71.829330
    5      -71.810248
    6      -71.809023
    7      -71.548799
    8      -71.547992
    9      -71.545957
   10      -71.512901
   11      -71.506908
   12      -71.504382
   13      -71.502293
   14      -71.500352
   15      -71.489857
   16      -71.435663
   17      -71.425164
   18      -71.424413
   19      -71.200039
   20      -71.192247
   21      -71.191044
   22      -71.188273
   23      -71.186743
   24      -71.174172
   25      -71.167547
   26      -71.167054
   27      -71.160075
   28      -71.159084
   29      -71.156411
   30      -71.153297
   31      -71.151092
   32      -71.150784
   33      -71.147851
   34      -71.147122
   35      -71.143866
   36      -71.130151
   37      -71.127009
   38      -71.126858
   39      -71.124211
   40      -71.123065
   41      -71.122590
   42      -71.117920
   43      -71.116782
   44      -71.116240
   45      -71.113415
   46      -71.112899
   47      -71.110485
   48      -71.106403
   49      -71.105337
   50      -71.104832
   51      -71.102437
   52      -71.091787
   53      -71.084113
   54      -71.082801
   55      -71.079151
   56      -71.064700
   57      -71.064425
   58      -71.063149
   59      -71.057272
   60      -71.055880
   61      -71.047666
   62      -71.044397
   63      -71.042083
   64      -71.040037
   65      -71.020738
   66      -71.018843
   67      -71.018381
   68      -71.015744
   69      -71.012764
   70      -70.997833
   71      -70.995401
   72      -70.992308
   73      -70.932415
   74      -70.926534
   75      -70.923338
   76      -70.921463
   77      -70.916756
   78      -70.906060
   79      -70.899600
   80      -70.896009
   81      -70.891424
   82      -70.886832
   83      -70.868814
   84      -70.865755
   85      -70.861367
   86      -70.860690
   87      -70.859702
   88      -70.857503
   89      -70.854491
   90      -70.854135
   91      -70.850254
   92      -70.844130
   93      -70.840054
   94      -70.839343
   95      -70.811485
   96      -70.807936
   97      -70.807457
   98      -70.807340
   99      -70.806276
  100      -70.804421
  101      -70.803448
  102      -70.802379
  103      -70.801086
  104      -70.799658
  105      -70.799343
  106      -70.739614
  107      -70.735370
  108      -70.735156
  109      -12.370273
  110      -12.063634
  111      -10.020001
  112       -8.588011
  113       -8.374300
  114       -7.718736
  115       -7.643475
  116       -7.325641
  117       -6.945724
  118       -6.941200
  119       -6.685169
  120       -6.658736
  121       -6.616142
  122       -6.424395
  123       -6.336812
  124       -6.326909
  125       -6.285494
  126       -6.195470
  127       -6.065648
  128       -6.028670
  129       -5.956668
  130       -5.888237
  131       -5.813114
  132       -5.732278
  133       -5.643586
  134       -5.627979
  135       -5.558244
  136       -5.526762
  137       -5.490177
  138       -5.483875
  139       -5.469982
  140       -5.451696
  141       -5.432229
  142       -5.416024
  143       -5.414776
  144       -5.378925
  145       -5.354499
  146       -5.320726
  147       -5.320039
  148       -5.281901
  149       -5.219828
  150       -5.208487
  151       -5.203265
  152       -5.183120
  153       -5.157086
  154       -5.124989
  155       -5.074353
  156       -5.052602
  157       -5.042758
  158       -5.030762
  159       -4.976255
  160       -4.952142
  161       -4.931103
  162       -4.895766
  163       -4.891096
  164       -4.858104
  165       -4.828435
  166       -4.801683
  167       -4.800166
  168       -4.754575
  169       -4.725900
  170       -4.678142
  171       -4.676209
  172       -4.634239
  173       -4.588988
  174       -4.578549
  175       -4.559422
  176       -4.555801
  177       -4.525112
  178       -4.512213
  179       -4.495879
  180       -4.418339
  181       -4.399086
  182       -4.392323
  183       -4.375373
  184       -4.343641
  185       -4.327465
  186       -4.317828
  187       -4.298486
  188       -4.273650
  189       -4.240958
  190       -4.234525
  191       -4.224441
  192       -4.201399
  193       -4.190454
  194       -4.182482
  195       -4.157607
  196       -4.153766
  197       -4.134364
  198       -4.118651
  199       -4.101722
  200       -4.072518
  201       -4.068196
  202       -4.047519
  203       -4.040058
  204       -4.036554
  205       -4.025420
  206       -4.008692
  207       -4.006749
  208       -3.983018
  209       -3.958692
  210       -3.954812
  211       -3.940841
  212       -3.937557
  213       -3.914456
  214       -3.902435
  215       -3.891615
  216       -3.876409
  217       -3.864526
  218       -3.837557
  219       -3.813260
  220       -3.803832
  221       -3.794338
  222       -3.788316
  223       -3.783944
  224       -3.775104
  225       -3.770821
  226       -3.736928
  227       -3.729431
  228       -3.684565
  229       -3.660403
  230       -3.650705
  231       -3.620283
  232       -3.615874
  233       -3.565179
  234       -3.531556
  235       -3.508559
  236       -3.477837
  237       -3.456079
  238       -3.447217
  239       -3.439173
  240       -3.414734
  241       -3.405252
  242       -3.374956
  243       -3.373428
  244       -3.350360
  245       -3.348362
  246       -3.318513
  247       -3.301307
  248       -3.292261
  249       -3.277362
  250       -3.257966
  251       -3.244008
  252       -3.233230
  253       -3.219016
  254       -3.213091
  255       -3.183138
  256       -3.180770
  257       -3.172095
  258       -3.160410
  259       -3.128150
  260       -3.080641
  261       -3.078393
  262       -3.066061
  263       -3.040325
  264       -3.035817
  265       -3.020510
  266       -3.010204
  267       -2.997590
  268       -2.983347
  269       -2.964326
  270       -2.950227
  271       -2.929261
  272       -2.922597
  273       -2.905666
  274       -2.892681
  275       -2.888308
  276       -2.870096
  277       -2.856604
  278       -2.839822
  279       -2.821479
  280       -2.819244
  281       -2.799474
  282       -2.785915
  283       -2.777073
  284       -2.756100
  285       -2.752031
  286       -2.742437
  287       -2.738519
  288       -2.723024
  289       -2.716488
  290       -2.706381
  291       -2.693982
  292       -2.687376
  293       -2.678535
  294       -2.664298
  295       -2.661268
  296       -2.657476
  297       -2.643946
  298       -2.623758
  299       -2.516126
  300       -2.499438
  301       -2.404068
  302       -2.391559
  303       -2.243328
  304       -2.142216
  305       -2.053990
  306       -2.041677
  307       -1.905252
  308       -1.638053
  309       -1.441599
  310       -1.281184
  311       -1.192358
  312       -1.060234
  313       -0.655763
  314       -0.625661
  315       -0.254927
  316        0.006764
  317        0.010587
  318        0.477412
  319        0.527043
  320        0.616940
  321        0.815688
  322        1.124431
  323        1.220924
  324        1.525859
  325        1.602149
  326        1.799201
  327        2.169363
  328        2.489166
  329        2.552565
  330        2.642644
  331        3.063178
  332        3.267856
  333        3.279127
  334        3.577447
  335        3.731110
  336        3.766902
  337        3.900353
  338        4.265204
  339        4.423488
  340        4.458622
  341        4.582211
  342        4.654201
  343        4.803408
  344        5.043146
  345        5.097090
  346        5.178572
  347        5.235352
  348        5.311288
  349        5.408692
  350        5.481922
  351        5.714342
  352        5.812450
  353        5.843699
  354        5.909479
  355        6.029301
  356        6.124444
  357        6.214862
  358        6.346761
  359        6.407646
  360        6.517123
  361        6.567716
  362        6.665268
  363        6.695184
  364        6.788441
  365        6.871188
  366        7.115922
  367        7.210413
  368        7.237658
  369        7.376754
  370        7.494235
  371        7.545569
  372        7.552787
 
  0.5000000E+00  0.1110223E-15  0.0000000E+00  0.1250000E+00
    1      -71.855659
    2      -71.835239
    3      -71.832812
    4      -71.830244
    5      -71.810314
    6      -71.807969
    7      -71.548894
    8      -71.548172
    9      -71.546791
   10      -71.513109
   11      -71.506966
   12      -71.502337
   13      -71.500786
   14      -71.499330
   15      -71.493499
   16      -71.434701
   17      -71.426272
   18      -71.424480
   19      -71.206352
   20      -71.195216
   21      -71.194720
   22      -71.193139
   23      -71.190940
   24      -71.170912
   25      -71.164784
   26      -71.161344
   27      -71.155868
   28      -71.152172
   29      -71.151292
   30      -71.151169
   31      -71.148335
   32      -71.146254
   33      -71.142753
   34      -71.142323
   35      -71.140922
   36      -71.140073
   37      -71.131003
   38      -71.127536
   39      -71.126393
   40      -71.125120
   41      -71.124539
   42      -71.123662
   43      -71.118153
   44      -71.117719
   45      -71.116750
   46      -71.113371
   47      -71.108527
   48      -71.108374
   49      -71.106265
   50      -71.105933
   51      -71.105429
   52      -71.092877
   53      -71.083245
   54      -71.078749
   55      -71.073919
   56      -71.064415
   57      -71.064156
   58      -71.063094
   59      -71.058853
   60      -71.056209
   61      -71.046377
   62      -71.043386
   63      -71.038914
   64      -71.034860
   65      -71.021503
   66      -71.020626
   67      -71.018313
   68      -71.018194
   69      -71.012726
   70      -71.000312
   71      -70.998463
   72      -70.993511
   73      -70.938556
   74      -70.930019
   75      -70.927708
   76      -70.924992
   77      -70.920792
   78      -70.900356
   79      -70.893714
   80      -70.881176
   81      -70.880049
   82      -70.876136
   83      -70.874701
   84      -70.867635
   85      -70.863860
   86      -70.862484
   87      -70.860769
   88      -70.859553
   89      -70.858781
   90      -70.854255
   91      -70.853767
   92      -70.846586
   93      -70.842239
   94      -70.840357
   95      -70.810612
   96      -70.808794
   97      -70.808545
   98      -70.807661
   99      -70.806325
  100      -70.804542
  101      -70.803168
  102      -70.801908
  103      -70.800435
  104      -70.799723
  105      -70.799380
  106      -70.739616
  107      -70.735262
  108      -70.735064
  109      -12.280413
  110      -12.143671
  111       -9.426540
  112       -9.343558
  113       -8.180263
  114       -7.931057
  115       -7.872437
  116       -7.771147
  117       -7.006637
  118       -6.790412
  119       -6.644927
  120       -6.445275
  121       -6.246366
  122       -6.221584
  123       -6.128054
  124       -6.119266
  125       -6.038595
  126       -5.994538
  127       -5.968052
  128       -5.946604
  129       -5.925262
  130       -5.911746
  131       -5.872530
  132       -5.847219
  133       -5.791980
  134       -5.778750
  135       -5.726192
  136       -5.672770
  137       -5.650752
  138       -5.597595
  139       -5.594522
  140       -5.573519
  141       -5.516949
  142       -5.456324
  143       -5.420316
  144       -5.369281
  145       -5.364258
  146       -5.321818
  147       -5.315172
  148       -5.307439
  149       -5.272665
  150       -5.246260
  151       -5.219830
  152       -5.204268
  153       -5.155025
  154       -5.125604
  155       -5.094449
  156       -5.022152
  157       -4.987054
  158       -4.971078
  159       -4.952100
  160       -4.944184
  161       -4.933652
  162       -4.893032
  163       -4.887762
  164       -4.854432
  165       -4.837067
  166       -4.799345
  167       -4.726978
  168       -4.709084
  169       -4.693965
  170       -4.683156
  171       -4.661688
  172       -4.647952
  173       -4.640417
  174       -4.588037
  175       -4.550910
  176       -4.530590
  177       -4.525636
  178       -4.501074
  179       -4.463984
  180       -4.457279
  181       -4.434570
  182       -4.413079
  183       -4.383650
  184       -4.380780
  185       -4.361696
  186       -4.346167
  187       -4.343334
  188       -4.308142
  189       -4.304136
  190       -4.302279
  191       -4.289606
  192       -4.263587
  193       -4.240983
  194       -4.233654
  195       -4.201518
  196       -4.199903
  197       -4.181285
  198       -4.139718
  199       -4.118819
  200       -4.117567
  201       -4.089147
  202       -4.068967
  203       -4.053704
  204       -4.046877
  205       -4.024845
  206       -4.018300
  207       -4.011258
  208       -3.992352
  209       -3.984644
  210       -3.980362
  211       -3.951361
  212       -3.939180
  213       -3.927001
  214       -3.911273
  215       -3.892451
  216       -3.888022
  217       -3.884869
  218       -3.852924
  219       -3.840866
  220       -3.824621
  221       -3.812979
  222       -3.803643
  223       -3.782599
  224       -3.781573
  225       -3.739898
  226       -3.709126
  227       -3.705248
  228       -3.654540
  229       -3.642609
  230       -3.633214
  231       -3.601190
  232       -3.597030
  233       -3.587223
  234       -3.571331
  235       -3.555292
  236       -3.540635
  237       -3.525665
  238       -3.506829
  239       -3.500798
  240       -3.487011
  241       -3.478356
  242       -3.440495
  243       -3.431137
  244       -3.382947
  245       -3.360095
  246       -3.350368
  247       -3.320445
  248       -3.302162
  249       -3.290454
  250       -3.289035
  251       -3.268332
  252       -3.256732
  253       -3.242064
  254       -3.236192
  255       -3.213321
  256       -3.186192
  257       -3.165146
  258       -3.137461
  259       -3.120747
  260       -3.104229
  261       -3.094151
  262       -3.066862
  263       -3.064852
  264       -3.054240
  265       -3.052463
  266       -3.035291
  267       -3.016938
  268       -3.001674
  269       -2.965483
  270       -2.953500
  271       -2.940053
  272       -2.913805
  273       -2.905683
  274       -2.885546
  275       -2.855838
  276       -2.851595
  277       -2.836094
  278       -2.823867
  279       -2.801020
  280       -2.783099
  281       -2.777820
  282       -2.765013
  283       -2.746841
  284       -2.734002
  285       -2.731450
  286       -2.713334
  287       -2.711440
  288       -2.699351
  289       -2.679065
  290       -2.669648
  291       -2.668141
  292       -2.659389
  293       -2.603793
  294       -2.591052
  295       -2.581568
  296       -2.575393
  297       -2.547414
  298       -2.474076
  299       -2.403075
  300       -2.328202
  301       -2.107170
  302       -1.962072
  303       -1.834659
  304       -1.556899
  305       -1.511705
  306       -1.432523
  307       -1.234045
  308       -1.151863
  309       -1.049377
  310       -1.017236
  311       -0.854294
  312       -0.831405
  313       -0.749520
  314       -0.603991
  315       -0.434815
  316       -0.137591
  317       -0.123446
  318       -0.108483
  319        0.129626
  320        0.383456
  321        0.435210
  322        0.444145
  323        0.700704
  324        0.761734
  325        1.296668
  326        1.461404
  327        1.565371
  328        1.895957
  329        2.303229
  330        2.550749
  331        2.682399
  332        2.937738
  333        3.275684
  334        3.420859
  335        3.594143
  336        3.901705
  337        4.083734
  338        4.175744
  339        4.247639
  340        4.331470
  341        4.376737
  342        4.511397
  343        4.749788
  344        4.849856
  345        5.026210
  346        5.101437
  347        5.323246
  348        5.357696
  349        5.369364
  350        5.473401
  351        5.642255
  352        5.674343
  353        5.684256
  354        5.794192
  355        5.868032
  356        6.184670
  357        6.334146
  358        6.375249
  359        6.579250
  360        6.675096
  361        6.694706
  362        6.812970
  363        6.820121
  364        6.935743
  365        7.009295
  366        7.044575
  367        7.120987
  368        7.253571
  369        7.299376
  370        7.427672
  371        7.642831
  372        7.682085
 
  0.0000000E+00  0.2500000E+00  0.0000000E+00  0.1250000E+00
    1      -71.855284
    2      -71.835327
    3      -71.832797
    4      -71.829165
    5      -71.810276
    6      -71.809000
    7      -71.548768
    8      -71.548396
    9      -71.545536
   10      -71.512870
   11      -71.507169
   12      -71.504360
   13      -71.502183
   14      -71.500336
   15      -71.489828
   16      -71.435655
   17      -71.425334
   18      -71.424250
   19      -71.199857
   20      -71.192337
   21      -71.191053
   22      -71.188320
   23      -71.186752
   24      -71.174276
   25      -71.167651
   26      -71.167103
   27      -71.159945
   28      -71.159118
   29      -71.156369
   30      -71.153341
   31      -71.150910
   32      -71.150786
   33      -71.147806
   34      -71.147229
   35      -71.143848
   36      -71.130143
   37      -71.126930
   38      -71.126894
   39      -71.124188
   40      -71.123104
   41      -71.122539
   42      -71.117799
   43      -71.116677
   44      -71.116494
   45      -71.113358
   46      -71.113035
   47      -71.110417
   48      -71.106311
   49      -71.105291
   50      -71.104890
   51      -71.102562
   52      -71.091780
   53      -71.084173
   54      -71.082770
   55      -71.079167
   56      -71.064659
   57      -71.064490
   58      -71.063147
   59      -71.057130
   60      -71.056029
   61      -71.047621
   62      -71.044425
   63      -71.041977
   64      -71.040099
   65      -71.020753
   66      -71.018668
   67      -71.018471
   68      -71.015860
   69      -71.012681
   70      -70.997853
   71      -70.995247
   72      -70.992471
   73      -70.932381
   74      -70.926517
   75      -70.923498
   76      -70.921389
   77      -70.916695
   78      -70.906157
   79      -70.899519
   80      -70.896067
   81      -70.891342
   82      -70.886853
   83      -70.868816
   84      -70.865731
   85      -70.861351
   86      -70.860526
   87      -70.859867
   88      -70.857488
   89      -70.854558
   90      -70.854141
   91      -70.850238
   92      -70.844214
   93      -70.840056
   94      -70.839266
   95      -70.811478
   96      -70.807849
   97      -70.807542
   98      -70.807443
   99      -70.806133
  100      -70.804417
  101      -70.803538
  102      -70.802315
  103      -70.801127
  104      -70.799621
  105      -70.799362
  106      -70.739614
  107      -70.735376
  108      -70.735149
  109      -12.370025
  110      -12.063985
  111      -10.019980
  112       -8.587748
  113       -8.374476
  114       -7.718903
  115       -7.643170
  116       -7.324912
  117       -6.945736
  118       -6.942082
  119       -6.684863
  120       -6.658739
  121       -6.615675
  122       -6.425623
  123       -6.337135
  124       -6.327502
  125       -6.285342
  126       -6.195283
  127       -6.066283
  128       -6.028141
  129       -5.956371
  130       -5.888682
  131       -5.813555
  132       -5.731376
  133       -5.643228
  134       -5.627518
  135       -5.559379
  136       -5.528312
  137       -5.489840
  138       -5.484277
  139       -5.469635
  140       -5.450555
  141       -5.431162
  142       -5.415502
  143       -5.414616
  144       -5.378847
  145       -5.353948
  146       -5.320567
  147       -5.320300
  148       -5.281657
  149       -5.219144
  150       -5.207442
  151       -5.204246
  152       -5.182652
  153       -5.157448
  154       -5.125789
  155       -5.074160
  156       -5.052954
  157       -5.041207
  158       -5.030941
  159       -4.975647
  160       -4.951462
  161       -4.931279
  162       -4.896097
  163       -4.891422
  164       -4.858546
  165       -4.827484
  166       -4.801123
  167       -4.800012
  168       -4.754213
  169       -4.725467
  170       -4.678322
  171       -4.675992
  172       -4.632952
  173       -4.589352
  174       -4.577699
  175       -4.559370
  176       -4.555534
  177       -4.524161
  178       -4.515727
  179       -4.494913
  180       -4.417275
  181       -4.399962
  182       -4.392135
  183       -4.374425
  184       -4.343703
  185       -4.329234
  186       -4.316781
  187       -4.300129
  188       -4.272889
  189       -4.241373
  190       -4.235335
  191       -4.223224
  192       -4.200525
  193       -4.191443
  194       -4.183253
  195       -4.160920
  196       -4.156731
  197       -4.134761
  198       -4.118732
  199       -4.101312
  200       -4.072365
  201       -4.067893
  202       -4.048255
  203       -4.040355
  204       -4.036119
  205       -4.024412
  206       -4.007181
  207       -4.005441
  208       -3.983586
  209       -3.957977
  210       -3.954509
  211       -3.940863
  212       -3.937311
  213       -3.915272
  214       -3.903492
  215       -3.890759
  216       -3.876417
  217       -3.864747
  218       -3.837877
  219       -3.814092
  220       -3.803744
  221       -3.794811
  222       -3.788783
  223       -3.784313
  224       -3.775179
  225       -3.771245
  226       -3.736855
  227       -3.727336