       N       E                     dE             d eps       ncg     rms          rms(c)
DAV:   1     0.608085511277E+04    0.60809E+04   -0.40305E+05  6584   0.161E+03
DAV:   2     0.163897236302E+03   -0.59170E+04   -0.57621E+04  5488   0.532E+02
DAV:   3    -0.161364756915E+03   -0.32526E+03   -0.31302E+03  5680   0.152E+02
DAV:   4    -0.171281231800E+03   -0.99165E+01   -0.97846E+01  5584   0.246E+01
DAV:   5    -0.171636809884E+03   -0.35558E+00   -0.35542E+00  6136   0.442E+00    0.600E+01
DAV:   6    -0.206124287414E+03   -0.34487E+02   -0.43742E+02  6172   0.107E+02    0.785E+01
DAV:   7    -0.156226857576E+03    0.49897E+02   -0.11070E+02  6564   0.920E+01    0.521E+01
DAV:   8    -0.152175497838E+03    0.40514E+01   -0.78523E+01  6648   0.656E+01    0.328E+01
DAV:   9    -0.146675340254E+03    0.55002E+01   -0.41101E+01  6636   0.571E+01    0.229E+01
DAV:  10    -0.135546650717E+03    0.11129E+02   -0.23248E+01  6196   0.302E+01    0.989E+00
DAV:  11    -0.136390338538E+03   -0.84369E+00   -0.11265E+01  6248   0.160E+01    0.131E+01
DAV:  12    -0.135533845644E+03    0.85649E+00   -0.59957E+00  5648   0.787E+00    0.638E+00
DAV:  13    -0.135273961334E+03    0.25988E+00   -0.19767E+00  5648   0.850E+00    0.542E+00
DAV:  14    -0.135157416654E+03    0.11654E+00   -0.32719E-01  6544   0.254E+00    0.330E+00
DAV:  15    -0.135185982188E+03   -0.28566E-01   -0.74780E-01  5880   0.518E+00    0.331E+00
DAV:  16    -0.135207621089E+03   -0.21639E-01   -0.56848E-01  5624   0.364E+00    0.372E+00
DAV:  17    -0.135138365057E+03    0.69256E-01   -0.98325E-02  5616   0.333E+00    0.239E+00
DAV:  18    -0.135104003560E+03    0.34361E-01   -0.12978E-01  5792   0.789E-01    0.741E-01
DAV:  19    -0.135108998154E+03   -0.49946E-02   -0.96033E-03  5904   0.441E-01    0.816E-01
DAV:  20    -0.135112186121E+03   -0.31880E-02   -0.37470E-03  5768   0.283E-01    0.101E+00
DAV:  21    -0.135109825303E+03    0.23608E-02   -0.16825E-03  5444   0.178E-01    0.900E-01
DAV:  22    -0.135104889370E+03    0.49359E-02   -0.12635E-02  5472   0.361E-01    0.312E-01
DAV:  23    -0.135104998296E+03   -0.10893E-03   -0.21490E-03  6120   0.162E-01    0.142E-01
DAV:  24    -0.135106448805E+03   -0.14505E-02   -0.56397E-03  6424   0.366E-01    0.319E-01
DAV:  25    -0.135106126862E+03    0.32194E-03   -0.45817E-04  5168   0.899E-02    0.275E-01
DAV:  26    -0.135105162052E+03    0.96481E-03   -0.23374E-03  3760   0.236E-01    0.772E-02
DAV:  27    -0.135107681668E+03   -0.25196E-02   -0.89173E-03  6956   0.328E-01    0.395E-01
DAV:  28    -0.135106438574E+03    0.12431E-02   -0.14774E-03  4960   0.133E-01    0.244E-01
DAV:  29    -0.135106312242E+03    0.12633E-03   -0.17333E-04  4672   0.324E-02    0.201E-01
DAV:  30    -0.135106119829E+03    0.19241E-03   -0.10132E-04  3464   0.374E-02    0.154E-01
DAV:  31    -0.135106354537E+03   -0.23471E-03   -0.48369E-03  3736   0.338E-01    0.165E-01
DAV:  32    -0.135106142637E+03    0.21190E-03   -0.68260E-04  5656   0.137E-01    0.576E-02
DAV:  33    -0.135106364620E+03   -0.22198E-03   -0.20970E-04  5092   0.779E-02    0.109E-01
DAV:  34    -0.135106344038E+03    0.20582E-04   -0.51157E-05  3492   0.296E-02    0.820E-02
DAV:  35    -0.135106313454E+03    0.30584E-04   -0.33958E-04  3256   0.938E-02    0.112E-02
DAV:  36    -0.135106366874E+03   -0.53420E-04   -0.26118E-05  3312   0.204E-02    0.226E-02
DAV:  37    -0.135106387499E+03   -0.20626E-04   -0.90268E-06  3100   0.842E-03    0.207E-02
DAV:  38    -0.135106397225E+03   -0.97257E-05   -0.26926E-06  3048   0.765E-03
   1 F= -.14875135E+03 E0= -.14870049E+03  d E =-.148751E+03
       N       E                     dE             d eps       ncg     rms          rms(c)
DAV:   1    -0.132901521547E+03    0.22049E+01   -0.89242E+01  6704   0.838E+01    0.684E+00
DAV:   2    -0.136961048387E+03   -0.40595E+01   -0.34030E+01  5684   0.123E+01    0.774E+00
DAV:   3    -0.138923119364E+03   -0.19621E+01   -0.11764E+01  7620   0.254E+01    0.133E+01
DAV:   4    -0.135605338226E+03    0.33178E+01   -0.37348E+00  6356   0.174E+01    0.268E+00
DAV:   5    -0.135613343607E+03   -0.80054E-02   -0.29524E-01  6228   0.340E+00    0.209E+00
DAV:   6    -0.135612421807E+03    0.92180E-03   -0.99337E-02  5584   0.121E+00    0.165E+00
DAV:   7    -0.135612902422E+03   -0.48061E-03   -0.10484E-02  5552   0.738E-01    0.149E+00
DAV:   8    -0.135610379509E+03    0.25229E-02   -0.51150E-03  5704   0.464E-01    0.129E+00
DAV:   9    -0.135611807969E+03   -0.14285E-02   -0.83118E-03  6604   0.724E-01    0.947E-01
DAV:  10    -0.135612257378E+03   -0.44941E-03   -0.12372E-02  6740   0.901E-01    0.539E-01
DAV:  11    -0.135612027889E+03    0.22949E-03   -0.31998E-03  5640   0.310E-01    0.538E-01
DAV:  12    -0.135611968257E+03    0.59633E-04   -0.42223E-04  5592   0.155E-01    0.485E-01
DAV:  13    -0.135610158968E+03    0.18093E-02   -0.63956E-03  5576   0.272E-01    0.120E-01
DAV:  14    -0.135610421640E+03   -0.26267E-03   -0.83407E-04  5968   0.127E-01    0.119E-01
DAV:  15    -0.135610480062E+03   -0.58422E-04   -0.19868E-04  5024   0.808E-02    0.124E-01
DAV:  16    -0.135610449306E+03    0.30756E-04   -0.35820E-05  3588   0.455E-02    0.961E-02
DAV:  17    -0.135610394611E+03    0.54695E-04   -0.17799E-04  5132   0.496E-02    0.312E-02
DAV:  18    -0.135610410485E+03   -0.15874E-04   -0.32288E-05  4136   0.246E-02    0.309E-02
DAV:  19    -0.135610412933E+03   -0.24475E-05   -0.39469E-06  3008   0.922E-03
   2 F= -.14923495E+03 E0= -.14918687E+03  d E =-.483599E+00
       N       E                     dE             d eps       ncg     rms          rms(c)
DAV:   1    -0.111318152675E+03    0.24292E+02   -0.78530E+02  6144   0.229E+02    0.230E+01
DAV:   2    -0.147545613439E+03   -0.36227E+02   -0.30740E+02  6388   0.832E+01    0.540E+01
DAV:   3    -0.142431294536E+03    0.51143E+01   -0.45078E+01  6652   0.336E+01    0.221E+01
DAV:   4    -0.155897229655E+03   -0.13466E+02   -0.47909E+01  5868   0.630E+01    0.347E+01
DAV:   5    -0.138161492796E+03    0.17736E+02   -0.23620E+01  6380   0.342E+01    0.119E+01
DAV:   6    -0.137251047748E+03    0.91045E+00   -0.57051E+00  6768   0.116E+01    0.547E+00
DAV:   7    -0.137386486801E+03   -0.13544E+00   -0.15148E+00  5500   0.549E+00    0.502E+00
DAV:   8    -0.137344314617E+03    0.42172E-01   -0.24019E-01  5632   0.282E+00    0.422E+00
DAV:   9    -0.137345134839E+03   -0.82022E-03   -0.74161E-02  7736   0.182E+00    0.394E+00
DAV:  10    -0.137278563707E+03    0.66571E-01   -0.13963E-01  6776   0.218E+00    0.263E+00
DAV:  11    -0.137263515499E+03    0.15048E-01   -0.10863E-01  6756   0.214E+00    0.133E+00
DAV:  12    -0.137263889022E+03   -0.37352E-03   -0.46478E-02  5484   0.969E-01    0.130E+00
DAV:  13    -0.137262672060E+03    0.12170E-02   -0.17042E-03  6076   0.189E-01    0.128E+00
DAV:  14    -0.137260597404E+03    0.20747E-02   -0.59382E-04  7060   0.214E-01    0.121E+00
DAV:  15    -0.137256347191E+03    0.42502E-02   -0.16996E-02  5640   0.113E+00    0.719E-01
DAV:  16    -0.137253950544E+03    0.23966E-02   -0.12427E-02  5980   0.864E-01    0.440E-01
DAV:  17    -0.137254434187E+03   -0.48364E-03   -0.42278E-03  5380   0.190E-01    0.481E-01
DAV:  18    -0.137254344534E+03    0.89653E-04   -0.59685E-05  5052   0.432E-02    0.464E-01
DAV:  19    -0.137254419473E+03   -0.74939E-04   -0.22197E-05  3492   0.303E-02    0.480E-01
DAV:  20    -0.137254647960E+03   -0.22849E-03   -0.26424E-04  5364   0.665E-02    0.550E-01
DAV:  21    -0.137254437141E+03    0.21082E-03   -0.10552E-03  5620   0.164E-01    0.476E-01
DAV:  22    -0.137256408407E+03   -0.19713E-02   -0.64471E-03  5544   0.385E-01    0.965E-01
DAV:  23    -0.137258908805E+03   -0.25004E-02   -0.34174E-03  5660   0.205E-01    0.142E+00
DAV:  24    -0.137254913547E+03    0.39953E-02   -0.14897E-02  5540   0.661E-01    0.588E-01
DAV:  25    -0.137260575203E+03   -0.56617E-02   -0.19202E-02  5524   0.907E-01    0.163E+00
DAV:  26    -0.137280748939E+03   -0.20174E-01   -0.34445E-02  5604   0.860E-01    0.337E+00
DAV:  27    -0.137260153868E+03    0.20595E-01   -0.28642E-02  5596   0.101E+00    0.160E+00
DAV:  28    -0.137258377964E+03    0.17759E-02   -0.42910E-03  5732   0.223E-01    0.124E+00
DAV:  29    -0.137256052379E+03    0.23256E-02   -0.18016E-03  5604   0.244E-01    0.730E-01
DAV:  30    -0.137254074725E+03    0.19777E-02   -0.59438E-03  5572   0.327E-01    0.453E-01
DAV:  31    -0.137254861435E+03   -0.78671E-03   -0.66364E-03  5580   0.334E-01    0.944E-01
DAV:  32    -0.137254792615E+03    0.68821E-04   -0.89342E-04  5428   0.134E-01    0.977E-01
DAV:  33    -0.137255018312E+03   -0.22570E-03   -0.14785E-04  5860   0.661E-02    0.107E+00
DAV:  34    -0.137254952297E+03    0.66015E-04   -0.10541E-03  6236   0.257E-01    0.103E+00
DAV:  35    -0.137254534635E+03    0.41766E-03   -0.12654E-03  5456   0.158E-01    0.846E-01
DAV:  36    -0.137254312487E+03    0.22215E-03   -0.16481E-04  5732   0.102E-01    0.802E-01
DAV:  37    -0.137253931765E+03    0.38072E-03   -0.73449E-04  6164   0.230E-01    0.430E-01
DAV:  38    -0.137253959336E+03   -0.27571E-04   -0.56416E-04  6708   0.123E-01    0.225E-01
DAV:  39    -0.137253969543E+03   -0.10207E-04   -0.95947E-05  5864   0.924E-02    0.111E-01
DAV:  40    -0.137253966673E+03    0.28700E-05   -0.15972E-04  5064   0.488E-02    0.529E-02
DAV:  41    -0.137253951128E+03    0.15545E-04   -0.11898E-04  4708   0.642E-02    0.330E-02
DAV:  42    -0.137253958669E+03   -0.75413E-05   -0.32055E-05  4132   0.323E-02
   3 F= -.15080410E+03 E0= -.15076300E+03  d E =-.205275E+01
       N       E                     dE             d eps       ncg     rms          rms(c)
DAV:   1    -0.122208464742E+02    0.12503E+03   -0.34725E+03  5288   0.369E+02    0.584E+01
DAV:   2    -0.302935286274E+03   -0.29071E+03   -0.10024E+03  6464   0.255E+02    0.753E+02
DAV:   3    -0.407545435128E+03   -0.10461E+03   -0.60157E+02  5864   0.445E+01    0.209E+03
DAV:   4    -0.407376538047E+03    0.16890E+00   -0.26902E+01  6336   0.899E+00    0.211E+03
DAV:   5    -0.398404271299E+03    0.89723E+01   -0.12527E+00  6552   0.209E+00    0.211E+03
DAV:   6    -0.589264238418E+03   -0.19086E+03   -0.23925E+01  7948   0.195E+01    0.212E+03
DAV:   7    -0.283368853650E+03    0.30590E+03   -0.14771E+02  7596   0.395E+01    0.242E+02
DAV:   8    -0.263441422510E+03    0.19927E+02   -0.22049E+02  7196   0.768E+01    0.190E+02
DAV:   9    -0.210980593045E+03    0.52461E+02   -0.18339E+02  7152   0.606E+01    0.158E+02
DAV:  10    -0.140451076156E+03    0.70530E+02   -0.21311E+02  7200   0.459E+01    0.555E+01
DAV:  11    -0.128553973328E+03    0.11897E+02   -0.49794E+01  6288   0.455E+01    0.442E+01
DAV:  12    -0.126006088379E+03    0.25479E+01   -0.15723E+01  6268   0.213E+01    0.383E+01
DAV:  13    -0.125050875851E+03    0.95521E+00   -0.63382E+00  5664   0.177E+01    0.399E+01
DAV:  14    -0.124815082793E+03    0.23579E+00   -0.14000E+00  6088   0.967E+00    0.396E+01
DAV:  15    -0.124759394844E+03    0.55688E-01   -0.10128E+00  5680   0.757E+00    0.397E+01
DAV:  16    -0.125408451213E+03   -0.64906E+00   -0.77297E-01  6368   0.720E+00    0.431E+01
DAV:  17    -0.125958783805E+03   -0.55033E+00   -0.52711E-01  6600   0.447E+00    0.453E+01
DAV:  18    -0.126373384549E+03   -0.41460E+00   -0.15204E-01  5512   0.145E+00    0.471E+01
DAV:  19    -0.126481026325E+03   -0.10764E+00   -0.13922E-02  6080   0.573E-01    0.474E+01
DAV:  20    -0.126319645127E+03    0.16138E+00   -0.26816E-02  8208   0.127E+00    0.465E+01
DAV:  21    -0.126790224973E+03   -0.47058E+00   -0.15581E-02  5432   0.525E-01    0.479E+01
DAV:  22    -0.126883374119E+03   -0.93149E-01   -0.42035E-03  5744   0.206E-01    0.481E+01
DAV:  23    -0.126712488014E+03    0.17089E+00   -0.31647E-03  6248   0.281E-01    0.478E+01
DAV:  24    -0.126268092742E+03    0.44440E+00   -0.50524E-02  6552   0.113E+00    0.479E+01
DAV:  25    -0.126418763523E+03   -0.15067E+00   -0.14365E-02  6272   0.652E-01    0.470E+01
DAV:  26    -0.127525610771E+03   -0.11068E+01   -0.47221E-01  6028   0.266E+00    0.398E+01
DAV:  27    -0.130780783604E+03   -0.32552E+01   -0.14297E+00  6688   0.754E+00    0.293E+01
DAV:  28    -0.130790191723E+03   -0.94081E-02   -0.35867E-01  5312   0.175E+00    0.278E+01
DAV:  29    -0.130628265079E+03    0.16193E+00   -0.17117E-02  5576   0.879E-01    0.265E+01
DAV:  30    -0.130831476715E+03   -0.20321E+00   -0.46735E-02  6024   0.202E+00    0.215E+01
DAV:  31    -0.131212378544E+03   -0.38090E+00   -0.48346E-01  6460   0.450E+00    0.106E+01
DAV:  32    -0.130147031801E+03    0.10653E+01   -0.14356E-01  5576   0.133E+00    0.975E+00
DAV:  33    -0.129476262161E+03    0.67077E+00   -0.37731E-02  5440   0.625E-01    0.933E+00
DAV:  34    -0.129241707395E+03    0.23455E+00   -0.80658E-03  5728   0.316E-01    0.921E+00
DAV:  35    -0.129056668471E+03    0.18504E+00   -0.27292E-03  5696   0.280E-01    0.914E+00
DAV:  36    -0.129013279878E+03    0.43389E-01   -0.14204E-02  7936   0.890E-01    0.925E+00
DAV:  37    -0.128760967512E+03    0.25231E+00   -0.10661E-02  6944   0.588E-01    0.918E+00
DAV:  38    -0.128678117849E+03    0.82850E-01   -0.42176E-03  5728   0.289E-01    0.916E+00
DAV:  39    -0.128726831968E+03   -0.48714E-01   -0.16697E-03  5440   0.167E-01    0.924E+00
DAV:  40    -0.128718135938E+03    0.86960E-02   -0.15922E-04  5184   0.450E-02    0.924E+00
DAV:  41    -0.128702775809E+03    0.15360E-01   -0.46785E-05  3248   0.581E-02    0.923E+00
DAV:  42    -0.128567946853E+03    0.13483E+00   -0.55018E-03  7632   0.549E-01    0.928E+00
DAV:  43    -0.128527308402E+03    0.40638E-01   -0.15485E-03  5624   0.211E-01    0.929E+00
DAV:  44    -0.128438651394E+03    0.88657E-01   -0.65333E-04  6184   0.148E-01    0.927E+00
DAV:  45    -0.128307427097E+03    0.13122E+00   -0.96862E-04  5320   0.122E-01    0.924E+00
DAV:  46    -0.128159917157E+03    0.14751E+00   -0.76094E-04  5068   0.148E-01    0.927E+00
DAV:  47    -0.123811864224E+03    0.43481E+01   -0.18944E+00  6424   0.533E+00    0.834E+00
DAV:  48    -0.123777331349E+03    0.34533E-01   -0.43285E-01  6608   0.249E+00    0.824E+00
DAV:  49    -0.123767733044E+03    0.95983E-02   -0.51839E-02  6792   0.105E+00    0.824E+00
DAV:  50    -0.123765199138E+03    0.25339E-02   -0.23956E-02  5496   0.478E-01    0.827E+00
DAV:  51    -0.123764115930E+03    0.10832E-02   -0.84019E-03  6868   0.664E-01    0.832E+00
DAV:  52    -0.133816043723E+03   -0.10052E+02   -0.15176E+01  8172   0.357E+01    0.344E+01
DAV:  53    -0.135340130708E+03   -0.15241E+01   -0.22868E+00  5880   0.436E+00    0.365E+01
DAV:  54    -0.135154787657E+03    0.18534E+00   -0.26241E-01  5576   0.173E+00    0.358E+01
DAV:  55    -0.133701049781E+03    0.14537E+01   -0.13648E-01  5552   0.278E+00    0.328E+01
DAV:  56    -0.128535447490E+03    0.51656E+01   -0.18574E+00  7460   0.100E+01    0.215E+01
DAV:  57    -0.124912420453E+03    0.36230E+01   -0.56174E+00  7100   0.164E+01    0.807E+00
DAV:  58    -0.124798613408E+03    0.11381E+00   -0.32593E+00  5444   0.704E+00    0.111E+01
DAV:  59    -0.124915769176E+03   -0.11716E+00   -0.36757E-01  5864   0.412E+00    0.112E+01
DAV:  60    -0.124492039376E+03    0.42373E+00   -0.61867E-01  5520   0.470E+00
   4 F= -.13797639E+03 E0= -.13794764E+03  d E =0.107750E+02
       N       E                     dE             d eps       ncg     rms          rms(c)
DAV:   1    -0.352399194916E+02    0.89676E+02   -0.31701E+03  5644   0.298E+02    0.672E+01
DAV:   2    -0.384991349593E+03   -0.34975E+03   -0.96097E+02  6112   0.274E+02    0.144E+03
DAV:   3    -0.413685245414E+03   -0.28694E+02   -0.72045E+02  6288   0.456E+01    0.207E+03
DAV:   4    -0.319920086279E+03    0.93765E+02   -0.54738E+01  7608   0.254E+01    0.209E+03
DAV:   5    -0.328861498927E+03   -0.89414E+01   -0.67614E+00  6352   0.122E+01    0.209E+03
DAV:   6    -0.312164363618E+03    0.16697E+02   -0.39451E+00  6880   0.149E+01    0.209E+03
DAV:   7    -0.308948035708E+03    0.32163E+01   -0.30770E+00  6248   0.362E+00    0.209E+03
DAV:   8    -0.310924520555E+03   -0.19765E+01   -0.89134E-01  5696   0.431E+00    0.209E+03
DAV:   9    -0.310716520590E+03    0.20800E+00   -0.69996E+00  6408   0.173E+01    0.209E+03
DAV:  10    -0.307216054716E+03    0.35005E+01   -0.94371E+00  6760   0.100E+01    0.209E+03
DAV:  11    -0.316062301048E+03   -0.88462E+01   -0.26298E+01  6736   0.155E+01    0.209E+03
DAV:  12    -0.278623409304E+03    0.37439E+02   -0.19786E+01  7024   0.329E+01    0.136E+02
DAV:  13    -0.240701076222E+03    0.37922E+02   -0.13355E+02  6960   0.583E+01    0.877E+01
DAV:  14    -0.167338232568E+03    0.73363E+02   -0.12495E+02  6808   0.442E+01    0.434E+01
DAV:  15    -0.161376973137E+03    0.59613E+01   -0.27573E+01  6520   0.382E+01    0.390E+01
DAV:  16    -0.146122676617E+03    0.15254E+02   -0.45270E+01  6448   0.266E+01    0.358E+01
DAV:  17    -0.142799570289E+03    0.33231E+01   -0.67180E+00  6120   0.203E+01    0.310E+01
DAV:  18    -0.138833819603E+03    0.39658E+01   -0.56055E+00  6608   0.187E+01    0.244E+01
DAV:  19    -0.137994622154E+03    0.83920E+00   -0.41909E+00  7004   0.167E+01    0.191E+01
DAV:  20    -0.138600164462E+03   -0.60554E+00   -0.29287E+00  5464   0.745E+00    0.155E+01
DAV:  21    -0.139188442212E+03   -0.58828E+00   -0.64804E-01  5708   0.651E+00    0.140E+01
DAV:  22    -0.140371902724E+03   -0.11835E+01   -0.61776E+00  7228   0.175E+01    0.164E+01
DAV:  23    -0.140444841787E+03   -0.72939E-01   -0.28892E+00  6896   0.893E+00    0.186E+01
DAV:  24    -0.140849583982E+03   -0.40474E+00   -0.56105E-01  6984   0.544E+00    0.206E+01
DAV:  25    -0.144200027866E+03   -0.33504E+01   -0.13332E+00  5944   0.930E+00    0.319E+01
DAV:  26    -0.144893155551E+03   -0.69313E+00   -0.81338E-01  5536   0.233E+00    0.351E+01
DAV:  27    -0.144029074669E+03    0.86408E+00   -0.29108E-01  5720   0.455E+00    0.331E+01
DAV:  28    -0.144018764667E+03    0.10310E-01   -0.30699E-02  5720   0.429E-01    0.330E+01
DAV:  29    -0.144184214524E+03   -0.16545E+00   -0.20549E-02  6736   0.111E+00    0.334E+01
DAV:  30    -0.144042632047E+03    0.14158E+00   -0.49960E-02  5616   0.209E+00    0.350E+01
DAV:  31    -0.143182296297E+03    0.86034E+00   -0.10107E+00  7624   0.519E+00    0.367E+01
DAV:  32    -0.143051172840E+03    0.13112E+00   -0.30464E-01  5680   0.404E+00    0.374E+01
DAV:  33    -0.142935246158E+03    0.11593E+00   -0.87639E-02  6720   0.187E+00    0.379E+01
DAV:  34    -0.142084411171E+03    0.85083E+00   -0.41823E-01  6760   0.511E+00    0.343E+01
DAV:  35    -0.141328451980E+03    0.75596E+00   -0.26188E+00  5976   0.102E+01    0.308E+01
DAV:  36    -0.141141291836E+03    0.18716E+00   -0.18673E+00  5456   0.614E+00    0.322E+01
DAV:  37    -0.141173739273E+03   -0.32447E-01   -0.24024E-01  5536   0.173E+00    0.325E+01
DAV:  38    -0.141160794857E+03    0.12944E-01   -0.10399E-02  5848   0.338E-01    0.326E+01
DAV:  39    -0.141108916641E+03    0.51878E-01   -0.54620E-03  5688   0.849E-01    0.322E+01
DAV:  40    -0.141037971332E+03    0.70945E-01   -0.62479E-03  5904   0.112E+00    0.313E+01
DAV:  41    -0.141833015697E+03   -0.79504E+00   -0.29414E-01  5760   0.457E+00    0.319E+01
DAV:  42    -0.141982581212E+03   -0.14957E+00   -0.11611E-01  5496   0.935E-01    0.322E+01
DAV:  43    -0.141849268327E+03    0.13331E+00   -0.24053E-02  5536   0.948E-01    0.327E+01
DAV:  44    -0.141737501016E+03    0.11177E+00   -0.10844E-02  6016   0.685E-01    0.329E+01
DAV:  45    -0.141903123724E+03   -0.16562E+00   -0.12797E-02  5604   0.881E-01    0.330E+01
DAV:  46    -0.141933576684E+03   -0.30453E-01   -0.14419E-03  6600   0.227E-01    0.329E+01
DAV:  47    -0.144225076904E+03   -0.22915E+01   -0.17160E+00  7800   0.150E+01    0.353E+01
DAV:  48    -0.143672942538E+03    0.55213E+00   -0.97244E-01  5864   0.427E+00    0.307E+01
DAV:  49    -0.143440763108E+03    0.23218E+00   -0.20058E-01  5720   0.184E+00    0.290E+01
DAV:  50    -0.141017815040E+03    0.24229E+01   -0.40755E-01  6872   0.568E+00    0.245E+01
DAV:  51    -0.138910970802E+03    0.21068E+01   -0.13778E+00  6008   0.796E+00    0.182E+01
DAV:  52    -0.138598969345E+03    0.31200E+00   -0.93170E-01  6056   0.677E+00    0.228E+01
DAV:  53    -0.138290509192E+03    0.30846E+00   -0.54350E-01  5856   0.314E+00    0.218E+01
DAV:  54    -0.138277009531E+03    0.13500E-01   -0.35738E-01  5500   0.294E+00    0.208E+01
DAV:  55    -0.138035596416E+03    0.24141E+00   -0.76537E-02  6228   0.235E+00    0.194E+01
DAV:  56    -0.137766016528E+03    0.26958E+00   -0.25107E-01  6360   0.427E+00    0.177E+01
DAV:  57    -0.143254081861E+03   -0.54881E+01   -0.12591E+01  6704   0.243E+01    0.240E+01
DAV:  58    -0.145390147385E+03   -0.21361E+01   -0.18704E+00  5820   0.770E+00    0.262E+01
DAV:  59    -0.145484380051E+03   -0.94233E-01   -0.95135E-01  5704   0.391E+00    0.259E+01
DAV:  60    -0.144559105715E+03    0.92527E+00   -0.11310E-01  7004   0.286E+00
   5 F= -.15810572E+03 E0= -.15808253E+03  d E =-.935437E+01
       N       E                     dE             d eps       ncg     rms          rms(c)
DAV:   1    -0.126115178338E+03    0.19369E+02   -0.35729E+02  7496   0.216E+02    0.365E+01
DAV:   2    -0.316860995451E+03   -0.19075E+03   -0.27444E+02  8120   0.164E+02    0.151E+02
DAV:   3    -0.141679327412E+03    0.17518E+03   -0.31751E+02  7208   0.745E+01    0.338E+01
DAV:   4    -0.154475178757E+03   -0.12796E+02   -0.10034E+02  6780   0.601E+01    0.320E+01
DAV:   5    -0.144108476205E+03    0.10367E+02   -0.23475E+01  5824   0.289E+01    0.205E+01
DAV:   6    -0.141493221944E+03    0.26153E+01   -0.76302E+00  5976   0.151E+01    0.184E+01
DAV:   7    -0.140141443798E+03    0.13518E+01   -0.63651E+00  5712   0.133E+01    0.125E+01
DAV:   8    -0.139278305887E+03    0.86314E+00   -0.13139E+00  5712   0.742E+00    0.999E+00
DAV:   9    -0.138480393474E+03    0.79791E+00   -0.61463E-01  6024   0.739E+00    0.895E+00
DAV:  10    -0.138527311465E+03   -0.46918E-01   -0.53577E-01  5648   0.289E+00    0.884E+00
DAV:  11    -0.138200587079E+03    0.32672E+00   -0.81500E-01  5784   0.638E+00    0.688E+00
DAV:  12    -0.137514959973E+03    0.68563E+00   -0.76549E-01  6576   0.895E+00    0.424E+00
DAV:  13    -0.137295995089E+03    0.21896E+00   -0.38669E-01  7080   0.313E+00    0.251E+00
DAV:  14    -0.137222571045E+03    0.73424E-01   -0.15945E-01  5688   0.207E+00    0.198E+00
DAV:  15    -0.137154985573E+03    0.67585E-01   -0.27339E-02  5916   0.800E-01    0.168E+00
DAV:  16    -0.137008331883E+03    0.14665E+00   -0.31148E-02  6620   0.115E+00    0.132E+00
DAV:  17    -0.136935495941E+03    0.72836E-01   -0.29940E-02  6600   0.103E+00    0.115E+00
DAV:  18    -0.136891773768E+03    0.43722E-01   -0.24090E-02  6376   0.809E-01    0.122E+00
DAV:  19    -0.136865027138E+03    0.26747E-01   -0.12180E-02  5688   0.474E-01    0.103E+00
DAV:  20    -0.136833489916E+03    0.31537E-01   -0.10778E-02  6616   0.551E-01    0.838E-01
DAV:  21    -0.136830155096E+03    0.33348E-02   -0.18286E-02  5632   0.182E+00    0.692E-01
DAV:  22    -0.136815071861E+03    0.15083E-01   -0.12516E-02  6616   0.650E-01    0.459E-01
DAV:  23    -0.136807253806E+03    0.78181E-02   -0.53194E-03  5456   0.391E-01    0.335E-01
DAV:  24    -0.136805795097E+03    0.14587E-02   -0.11417E-03  5436   0.136E-01    0.328E-01
DAV:  25    -0.136806053926E+03   -0.25883E-03   -0.41299E-04  5096   0.958E-02    0.338E-01
DAV:  26    -0.136802684993E+03    0.33689E-02   -0.35891E-03  6376   0.431E-01    0.120E-01
DAV:  27    -0.136803440211E+03   -0.75522E-03   -0.11160E-03  5404   0.102E-01    0.102E-01
DAV:  28    -0.136804087833E+03   -0.64762E-03   -0.15805E-04  4908   0.735E-02    0.105E-01
DAV:  29    -0.136804989825E+03   -0.90199E-03   -0.20986E-04  4636   0.691E-02    0.730E-02
DAV:  30    -0.136805437517E+03   -0.44769E-03   -0.78232E-05  4628   0.301E-02    0.536E-02
DAV:  31    -0.136805531930E+03   -0.94413E-04   -0.26973E-05  3456   0.346E-02    0.335E-02
DAV:  32    -0.136805703647E+03   -0.17172E-03   -0.19744E-05  3364   0.198E-02    0.216E-02
DAV:  33    -0.136805838070E+03   -0.13442E-03   -0.48502E-05  4096   0.403E-02    0.266E-02
DAV:  34    -0.136805939685E+03   -0.10162E-03   -0.18045E-05  3508   0.206E-02    0.183E-02
DAV:  35    -0.136805976279E+03   -0.36594E-04   -0.48758E-06  3312   0.765E-03    0.164E-02
DAV:  36    -0.136806001836E+03   -0.25557E-04   -0.17755E-06  3128   0.648E-03    0.148E-02
DAV:  37    -0.136806022794E+03   -0.20959E-04   -0.21996E-06  3156   0.837E-03    0.704E-03
DAV:  38    -0.136806055908E+03   -0.33114E-04   -0.31911E-06  3236   0.864E-03    0.584E-03
DAV:  39    -0.136806066321E+03   -0.10413E-04   -0.24939E-06  3192   0.754E-03    0.718E-03
DAV:  40    -0.136806072697E+03   -0.63763E-05   -0.43566E-07  3080   0.335E-03
   6 F= -.15035485E+03 E0= -.15031372E+03  d E =0.775088E+01
       N       E                     dE             d eps       ncg     rms          rms(c)
DAV:   1    -0.131578322147E+03    0.52277E+01   -0.11339E+02  7092   0.127E+02    0.116E+01
DAV:   2    -0.137288288059E+03   -0.57100E+01   -0.58138E+01  5668   0.204E+01    0.783E+00
DAV:   3    -0.137315656327E+03   -0.27368E-01   -0.36987E+00  5832   0.133E+01    0.429E+00
DAV:   4    -0.137341376013E+03   -0.25720E-01   -0.98415E-01  6396   0.911E+00    0.412E+00
DAV:   5    -0.137277073036E+03    0.64303E-01   -0.49746E-01  7408   0.483E+00    0.323E+00
DAV:   6    -0.137263763902E+03    0.13309E-01   -0.15705E-01  6052   0.147E+00    0.295E+00
DAV:   7    -0.137257731457E+03    0.60324E-02   -0.23898E-02  5772   0.738E-01    0.256E+00
DAV:   8    -0.137255451423E+03    0.22800E-02   -0.58815E-03  5924   0.444E-01    0.206E+00
DAV:   9    -0.137250017850E+03    0.54336E-02   -0.16350E-02  7232   0.109E+00    0.740E-01
DAV:  10    -0.137249352279E+03    0.66557E-03   -0.83980E-03  7180   0.518E-01    0.379E-01
DAV:  11    -0.137249317033E+03    0.35247E-04   -0.21875E-03  5488   0.286E-01    0.327E-01
DAV:  12    -0.137249354594E+03   -0.37561E-04   -0.31128E-04  4828   0.857E-02    0.290E-01
DAV:  13    -0.137249388855E+03   -0.34261E-04   -0.99584E-05  4744   0.522E-02    0.213E-01
DAV:  14    -0.137249377636E+03    0.11219E-04   -0.16263E-04  5824   0.729E-02    0.998E-02
DAV:  15    -0.137249377382E+03    0.25367E-06   -0.69397E-05  4936   0.763E-02
   7 F= -.15079505E+03 E0= -.15075440E+03  d E =0.731068E+01
       N       E                     dE             d eps       ncg     rms          rms(c)
DAV:   1    -0.136740928430E+03    0.50845E+00   -0.13015E+01  6988   0.422E+01    0.260E+00
DAV:   2    -0.137338306527E+03   -0.59738E+00   -0.60508E+00  5372   0.521E+00    0.158E+00
DAV:   3    -0.137445151414E+03   -0.10684E+00   -0.66775E-01  8024   0.372E+00    0.275E+00
DAV:   4    -0.137340130897E+03    0.10502E+00   -0.38906E-01  6016   0.397E+00    0.981E-01
DAV:   5    -0.137341983854E+03   -0.18530E-02   -0.35599E-02  6552   0.166E+00    0.970E-01
DAV:   6    -0.137339115260E+03    0.28686E-02   -0.11660E-02  6648   0.870E-01    0.726E-01
DAV:   7    -0.137338764117E+03    0.35114E-03   -0.42799E-03  5788   0.491E-01    0.533E-01
DAV:   8    -0.137338641732E+03    0.12239E-03   -0.15043E-03  5640   0.232E-01    0.298E-01
DAV:   9    -0.137338358379E+03    0.28335E-03   -0.11466E-03  6112   0.250E-01    0.129E-01
DAV:  10    -0.137338364499E+03   -0.61194E-05   -0.32899E-04  6432   0.151E-01    0.882E-02
DAV:  11    -0.137338367299E+03   -0.27998E-05   -0.20287E-04  4992   0.907E-02    0.806E-02
DAV:  12    -0.137338371344E+03   -0.40457E-05   -0.25759E-05  3784   0.255E-02
   8 F= -.15088427E+03 E0= -.15084364E+03  d E =0.722145E+01
       N       E                     dE             d eps       ncg     rms          rms(c)
DAV:   1    -0.137104227796E+03    0.23414E+00   -0.61061E+00  6992   0.287E+01    0.170E+00
DAV:   2    -0.137379090704E+03   -0.27486E+00   -0.27774E+00  5360   0.345E+00    0.103E+00
DAV:   3    -0.137446401843E+03   -0.67311E-01   -0.38945E-01  8224   0.304E+00    0.214E+00
DAV:   4    -0.137378422423E+03    0.67979E-01   -0.19964E-01  6060   0.289E+00    0.625E-01
DAV:   5    -0.137380071994E+03   -0.16496E-02   -0.12491E-02  6628   0.925E-01    0.657E-01
DAV:   6    -0.137378742352E+03    0.13296E-02   -0.55499E-03  6352   0.598E-01    0.471E-01
DAV:   7    -0.137378678304E+03    0.64048E-04   -0.22319E-03  5748   0.370E-01    0.328E-01
DAV:   8    -0.137378519117E+03    0.15919E-03   -0.70426E-04  5808   0.184E-01    0.169E-01
DAV:   9    -0.137378430262E+03    0.88855E-04   -0.50542E-04  6160   0.152E-01    0.672E-02
DAV:  10    -0.137378459285E+03   -0.29023E-04   -0.15013E-04  6192   0.975E-02    0.457E-02
DAV:  11    -0.137378457547E+03    0.17384E-05   -0.12814E-04  4708   0.815E-02    0.389E-02
DAV:  12    -0.137378460493E+03   -0.29465E-05   -0.11940E-05  3256   0.144E-02
   9 F= -.15092468E+03 E0= -.15088409E+03  d E =0.718105E+01
       N       E                     dE             d eps       ncg     rms          rms(c)
DAV:   1    -0.137324266333E+03    0.54191E-01   -0.15397E+00  7024   0.143E+01    0.805E-01
DAV:   2    -0.137392079013E+03   -0.67813E-01   -0.68355E-01  5296   0.168E+00    0.503E-01
DAV:   3    -0.137412006048E+03   -0.19927E-01   -0.11394E-01  8004   0.173E+00    0.114E+00
DAV:   4    -0.137391538690E+03    0.20467E-01   -0.54528E-02  5984   0.153E+00    0.303E-01
DAV:   5    -0.137392079131E+03   -0.54044E-03   -0.29289E-03  6580   0.421E-01    0.322E-01
DAV:   6    -0.137391697092E+03    0.38204E-03   -0.14717E-03  6216   0.322E-01    0.217E-01
DAV:   7    -0.137391699079E+03   -0.19871E-05   -0.56058E-04  5340   0.186E-01    0.138E-01
DAV:   8    -0.137391672759E+03    0.26320E-04   -0.17955E-04  5432   0.962E-02    0.668E-02
DAV:   9    -0.137391670973E+03    0.17864E-05   -0.10122E-04  5208   0.651E-02    0.300E-02
DAV:  10    -0.137391680774E+03   -0.98008E-05   -0.30240E-05  4224   0.462E-02
  10 F= -.15093809E+03 E0= -.15089749E+03  d E =0.716764E+01
       N       E                     dE             d eps       ncg     rms          rms(c)
DAV:   1    -0.137379720638E+03    0.11950E-01   -0.38571E-01  7028   0.717E+00    0.391E-01
DAV:   2    -0.137396564589E+03   -0.16844E-01   -0.17002E-01  5240   0.833E-01    0.249E-01
DAV:   3    -0.137401192283E+03   -0.46277E-02   -0.27650E-02  7408   0.843E-01    0.548E-01
DAV:   4    -0.137396427134E+03    0.47651E-02   -0.12522E-02  5984   0.729E-01    0.151E-01
DAV:   5    -0.137396586780E+03   -0.15965E-03   -0.69524E-04  6284   0.209E-01    0.160E-01
DAV:   6    -0.137396485461E+03    0.10132E-03   -0.38596E-04  5780   0.172E-01    0.103E-01
DAV:   7    -0.137396493985E+03   -0.85236E-05   -0.14289E-04  5024   0.957E-02    0.610E-02
DAV:   8    -0.137396495457E+03   -0.14721E-05   -0.43904E-05  4736   0.444E-02
  11 F= -.15094300E+03 E0= -.15090246E+03  d E =0.716272E+01
       N       E                     dE             d eps       ncg     rms          rms(c)
DAV:   1    -0.137394271921E+03    0.22221E-02   -0.96480E-02  7056   0.359E+00    0.185E-01
DAV:   2    -0.137398448541E+03   -0.41766E-02   -0.42235E-02  5204   0.419E-01    0.129E-01
DAV:   3    -0.137399210647E+03   -0.76211E-03   -0.50022E-03  5880   0.352E-01    0.231E-01
DAV:   4    -0.137398429724E+03    0.78092E-03   -0.21657E-03  5632   0.301E-01    0.774E-02
DAV:   5    -0.137398471682E+03   -0.41958E-04   -0.15874E-04  4812   0.109E-01    0.854E-02
DAV:   6    -0.137398444249E+03    0.27434E-04   -0.10502E-04  4432   0.951E-02    0.536E-02
DAV:   7    -0.137398449007E+03   -0.47582E-05   -0.46418E-05  4872   0.572E-02
  12 F= -.15094501E+03 E0= -.15090446E+03  d E =0.716071E+01
       N       E                     dE             d eps       ncg     rms          rms(c)
DAV:   1    -0.131592317776E+03    0.58061E+01   -0.11391E+02  7224   0.131E+02    0.116E+01
DAV:   2    -0.137387105424E+03   -0.57948E+01   -0.59254E+01  5424   0.176E+01    0.535E+00
DAV:   3    -0.137904986801E+03   -0.51788E+00   -0.41959E+00  7696   0.137E+01    0.634E+00
DAV:   4    -0.137738390752E+03    0.16660E+00   -0.37118E+00  6028   0.141E+01    0.477E+00
DAV:   5    -0.137521699195E+03    0.21669E+00   -0.96990E-01  7348   0.624E+00    0.315E+00
DAV:   6    -0.137516475984E+03    0.52232E-02   -0.12393E-01  5640   0.128E+00    0.265E+00
DAV:   7    -0.137514698458E+03    0.17775E-02   -0.21221E-02  5952   0.127E+00    0.220E+00
DAV:   8    -0.137510466890E+03    0.42316E-02   -0.14936E-02  6164   0.826E-01    0.145E+00
DAV:   9    -0.137509170599E+03    0.12963E-02   -0.72487E-03  7648   0.722E-01    0.639E-01
DAV:  10    -0.137508597368E+03    0.57323E-03   -0.57810E-03  5956   0.468E-01    0.459E-01
DAV:  11    -0.137508308779E+03    0.28859E-03   -0.21089E-03  5356   0.295E-01    0.304E-01
DAV:  12    -0.137508316243E+03   -0.74639E-05   -0.47506E-04  5116   0.120E-01    0.242E-01
DAV:  13    -0.137508296934E+03    0.19309E-04   -0.65194E-04  5820   0.226E-01    0.133E-01
DAV:  14    -0.137508310923E+03   -0.13989E-04   -0.42427E-04  5164   0.116E-01    0.760E-02
DAV:  15    -0.137508303217E+03    0.77060E-05   -0.64001E-05  4748   0.543E-02
  13 F= -.15104947E+03 E0= -.15101008E+03  d E =-.104454E+00
       N       E                     dE             d eps       ncg     rms          rms(c)
DAV:   1    -0.137449397314E+03    0.58914E-01   -0.13164E+00  7088   0.140E+01    0.744E-01
DAV:   2    -0.137508234709E+03   -0.58837E-01   -0.59993E-01  5264   0.160E+00    0.429E-01
DAV:   3    -0.137515672046E+03   -0.74373E-02   -0.48596E-02  5972   0.134E+00    0.650E-01
DAV:   4    -0.137510083625E+03    0.55884E-02   -0.38456E-02  6368   0.128E+00    0.333E-01
DAV:   5    -0.137509204759E+03    0.87887E-03   -0.37194E-03  7968   0.464E-01    0.209E-01
DAV:   6    -0.137509183863E+03    0.20896E-04   -0.64609E-04  6028   0.175E-01    0.175E-01
DAV:   7    -0.137509171519E+03    0.12344E-04   -0.26213E-04  5240   0.862E-02    0.124E-01
DAV:   8    -0.137509180973E+03   -0.94547E-05   -0.55183E-05  5208   0.646E-02
  14 F= -.15105087E+03 E0= -.15101131E+03  d E =-.105856E+00
       N       E                     dE             d eps       ncg     rms          rms(c)
DAV:   1    -0.136851955193E+03    0.65722E+00   -0.30825E+01  6496   0.532E+01    0.358E+00
DAV:   2    -0.137890279241E+03   -0.10383E+01   -0.99905E+00  5520   0.700E+00    0.262E+00
DAV:   3    -0.138561560197E+03   -0.67128E+00   -0.38868E+00  7832   0.122E+01    0.676E+00
DAV:   4    -0.137813824343E+03    0.74774E+00   -0.13667E+00  6048   0.878E+00    0.157E+00
DAV:   5    -0.137814260880E+03   -0.43654E-03   -0.79430E-02  6496   0.139E+00    0.140E+00
DAV:   6    -0.137809862070E+03    0.43988E-02   -0.24546E-02  5968   0.111E+00    0.111E+00
DAV:   7    -0.137807843945E+03    0.20181E-02   -0.10475E-02  5512   0.726E-01    0.717E-01
DAV:   8    -0.137806079391E+03    0.17646E-02   -0.37271E-03  7916   0.567E-01    0.357E-01
DAV:   9    -0.137806449059E+03   -0.36967E-03   -0.20873E-03  6460   0.417E-01    0.238E-01
DAV:  10    -0.137806242870E+03    0.20619E-03   -0.11417E-03  5732   0.380E-01    0.134E-01
DAV:  11    -0.137806231849E+03    0.11021E-04   -0.46340E-04  6740   0.125E-01    0.928E-02
DAV:  12    -0.137806245476E+03   -0.13627E-04   -0.24213E-04  5064   0.945E-02    0.570E-02
DAV:  13    -0.137806227947E+03    0.17528E-04   -0.15046E-04  5024   0.100E-01    0.316E-02
DAV:  14    -0.137806236032E+03   -0.80851E-05   -0.62631E-05  4676   0.506E-02
  15 F= -.15134020E+03 E0= -.15130179E+03  d E =-.289336E+00
       N       E                     dE             d eps       ncg     rms          rms(c)
DAV:   1    -0.132941152826E+03    0.48651E+01   -0.15392E+02  6496   0.120E+02    0.113E+01
DAV:   2    -0.138094271763E+03   -0.51531E+01   -0.52988E+01  5448   0.186E+01    0.725E+00
DAV:   3    -0.138203495182E+03   -0.10922E+00   -0.31763E+00  6340   0.114E+01    0.440E+00
DAV:   4    -0.138519963042E+03   -0.31647E+00   -0.25249E+00  5996   0.120E+01    0.621E+00
DAV:   5    -0.138144572571E+03    0.37539E+00   -0.92071E-01  6836   0.716E+00    0.333E+00
DAV:   6    -0.138138209298E+03    0.63633E-02   -0.75267E-02  6792   0.212E+00    0.248E+00
DAV:   7    -0.138138127392E+03    0.81905E-04   -0.42539E-02  6364   0.140E+00    0.201E+00
DAV:   8    -0.138128734059E+03    0.93933E-02   -0.30480E-02  5812   0.118E+00    0.699E-01
DAV:   9    -0.138128587709E+03    0.14635E-03   -0.10199E-02  6024   0.619E-01    0.561E-01
DAV:  10    -0.138128744530E+03   -0.15682E-03   -0.30426E-03  5568   0.384E-01    0.447E-01
DAV:  11    -0.138128686259E+03    0.58271E-04   -0.44142E-04  6176   0.147E-01    0.309E-01
DAV:  12    -0.138128649353E+03    0.36905E-04   -0.38947E-04  5440   0.132E-01    0.143E-01
DAV:  13    -0.138128650005E+03   -0.65161E-06   -0.16692E-04  5096   0.109E-01    0.561E-02
DAV:  14    -0.138128683625E+03   -0.33620E-04   -0.75944E-05  4648   0.674E-02    0.603E-02
DAV:  15    -0.138128702969E+03   -0.19344E-04   -0.14702E-05  3368   0.237E-02    0.555E-02
DAV:  16    -0.138128717778E+03   -0.14809E-04   -0.64574E-06  3152   0.227E-02    0.360E-02
DAV:  17    -0.138128728181E+03   -0.10404E-04   -0.21522E-05  3144   0.351E-02    0.151E-02
DAV:  18    -0.138128749444E+03   -0.21262E-04   -0.68074E-06  3224   0.116E-02    0.137E-02
DAV:  19    -0.138128752074E+03   -0.26302E-05   -0.23612E-06  3160   0.475E-03
  16 F= -.15164575E+03 E0= -.15160871E+03  d E =-.594878E+00
       N       E                     dE             d eps       ncg     rms          rms(c)
DAV:   1    -0.135497720414E+03    0.26310E+01   -0.60332E+01  7476   0.802E+01    0.716E+00
DAV:   2    -0.138168493786E+03   -0.26708E+01   -0.27215E+01  5456   0.100E+01    0.292E+00
DAV:   3    -0.138264049582E+03   -0.95556E-01   -0.11323E+00  7048   0.327E+00    0.235E+00
DAV:   4    -0.138295703719E+03   -0.31654E-01   -0.33359E-01  5988   0.412E+00    0.261E+00
DAV:   5    -0.138247729965E+03    0.47974E-01   -0.16263E-01  5940   0.304E+00    0.186E+00
DAV:   6    -0.138247567323E+03    0.16264E-03   -0.10845E-02  6112   0.429E-01    0.155E+00
DAV:   7    -0.138246381331E+03    0.11860E-02   -0.51744E-03  5624   0.681E-01    0.809E-01
DAV:   8    -0.138246058056E+03    0.32328E-03   -0.30540E-03  6556   0.389E-01    0.442E-01
DAV:   9    -0.138245954805E+03    0.10325E-03   -0.14889E-03  7224   0.228E-01    0.238E-01
DAV:  10    -0.138246012505E+03   -0.57700E-04   -0.53895E-04  5672   0.184E-01    0.190E-01
DAV:  11    -0.138245952138E+03    0.60367E-04   -0.33912E-04  4988   0.151E-01    0.856E-02
DAV:  12    -0.138245964914E+03   -0.12776E-04   -0.78129E-05  5056   0.690E-02    0.505E-02
DAV:  13    -0.138245966645E+03   -0.17307E-05   -0.23958E-05  3968   0.376E-02
  17 F= -.15176264E+03 E0= -.15172536E+03  d E =-.116899E+00
       N       E                     dE             d eps       ncg     rms          rms(c)
DAV:   1    -0.124309224586E+03    0.13937E+02   -0.32850E+02  7976   0.177E+02    0.241E+01
DAV:   2    -0.138284786584E+03   -0.13976E+02   -0.13999E+02  5620   0.301E+01    0.127E+01
DAV:   3    -0.139655389281E+03   -0.13706E+01   -0.13450E+01  5796   0.284E+01    0.128E+01
DAV:   4    -0.139555275768E+03    0.10011E+00   -0.13220E+01  5916   0.298E+01    0.949E+00
DAV:   5    -0.138340724057E+03    0.12146E+01   -0.24189E+00  7680   0.128E+01    0.605E+00
DAV:   6    -0.138359714999E+03   -0.18991E-01   -0.45513E-01  5700   0.247E+00    0.554E+00
DAV:   7    -0.138361796654E+03   -0.20817E-02   -0.60769E-02  5840   0.896E-01    0.526E+00
DAV:   8    -0.138359829189E+03    0.19675E-02   -0.52390E-03  5552   0.664E-01    0.479E+00
DAV:   9    -0.138353785024E+03    0.60442E-02   -0.75543E-03  5788   0.102E+00    0.288E+00
DAV:  10    -0.138349706113E+03    0.40789E-02   -0.25063E-02  6828   0.160E+00    0.855E-01
DAV:  11    -0.138350350747E+03   -0.64463E-03   -0.11239E-02  5332   0.362E-01    0.783E-01
DAV:  12    -0.138350416876E+03   -0.66129E-04   -0.10250E-03  5692   0.107E-01    0.804E-01
DAV:  13    -0.138350322107E+03    0.94769E-04   -0.82717E-05  5336   0.726E-02    0.813E-01
DAV:  14    -0.138350504062E+03   -0.18195E-03   -0.16791E-04  5380   0.104E-01    0.878E-01
DAV:  15    -0.138350487252E+03    0.16810E-04   -0.54641E-04  5544   0.178E-01    0.715E-01
DAV:  16    -0.138353348275E+03   -0.28610E-02   -0.12955E-02  5540   0.654E-01    0.124E+00
DAV:  17    -0.138356398800E+03   -0.30505E-02   -0.49208E-03  5684   0.277E-01    0.173E+00
DAV:  18    -0.138356315835E+03    0.82965E-04   -0.50626E-04  5416   0.859E-02    0.173E+00
DAV:  19    -0.138357333847E+03   -0.10180E-02   -0.26194E-04  5464   0.111E-01    0.190E+00
DAV:  20    -0.138361842544E+03   -0.45087E-02   -0.28163E-03  5496   0.351E-01    0.249E+00
DAV:  21    -0.138364944491E+03   -0.31019E-02   -0.28007E-03  5660   0.259E-01    0.288E+00
DAV:  22    -0.138364615386E+03    0.32910E-03   -0.25090E-04  5368   0.673E-02    0.286E+00
DAV:  23    -0.138364392158E+03    0.22323E-03   -0.88022E-06  3352   0.106E-02    0.284E+00
DAV:  24    -0.138365642737E+03   -0.12506E-02   -0.96910E-05  5264   0.542E-02    0.295E+00
DAV:  25    -0.138359811761E+03    0.58310E-02   -0.22535E-03  5564   0.270E-01    0.240E+00
DAV:  26    -0.138355949995E+03    0.38618E-02   -0.23729E-03  5744   0.229E-01    0.192E+00
DAV:  27    -0.138354227190E+03    0.17228E-02   -0.74942E-04  5860   0.122E-01    0.164E+00
DAV:  28    -0.138351751025E+03    0.24762E-02   -0.16283E-03  5584   0.224E-01    0.116E+00
DAV:  29    -0.138350133786E+03    0.16172E-02   -0.22803E-03  5668   0.245E-01    0.645E-01
DAV:  30    -0.138349552451E+03    0.58134E-03   -0.19810E-03  5740   0.219E-01    0.163E-01
DAV:  31    -0.138349572325E+03   -0.19874E-04   -0.36561E-04  5776   0.645E-02    0.710E-02
DAV:  32    -0.138349579630E+03   -0.73058E-05   -0.18445E-05  3440   0.178E-02
  18 F= -.15186125E+03 E0= -.15182244E+03  d E =-.215500E+00
       N       E                     dE             d eps       ncg     rms          rms(c)
DAV:   1    -0.137055423912E+03    0.12941E+01   -0.31137E+01  6744   0.622E+01    0.410E+00
DAV:   2    -0.138401974729E+03   -0.13466E+01   -0.13713E+01  5440   0.752E+00    0.184E+00
DAV:   3    -0.138473007147E+03   -0.71032E-01   -0.56320E-01  8260   0.422E+00    0.220E+00
DAV:   4    -0.138444202811E+03    0.28804E-01   -0.33006E-01  5832   0.464E+00    0.159E+00
DAV:   5    -0.138426413515E+03    0.17789E-01   -0.71993E-02  6024   0.218E+00    0.112E+00
DAV:   6    -0.138426642238E+03   -0.22872E-03   -0.10919E-02  5868   0.439E-01    0.926E-01
DAV:   7    -0.138426054176E+03    0.58806E-03   -0.20297E-03  5952   0.356E-01    0.633E-01
DAV:   8    -0.138426043716E+03    0.10460E-04   -0.15432E-03  6452   0.417E-01    0.312E-01
DAV:   9    -0.138425972476E+03    0.71241E-04   -0.14842E-03  6380   0.336E-01    0.145E-01
DAV:  10    -0.138426015780E+03   -0.43304E-04   -0.49079E-04  5764   0.106E-01    0.121E-01
DAV:  11    -0.138426015581E+03    0.19843E-06   -0.72014E-05  5216   0.587E-02
  19 F= -.15194085E+03 E0= -.15190132E+03  d E =-.796060E-01
       N       E                     dE             d eps       ncg     rms          rms(c)
DAV:   1    -0.125834024022E+03    0.12592E+02   -0.28178E+02  7160   0.183E+02    0.195E+01
DAV:   2    -0.138749250961E+03   -0.12915E+02   -0.12876E+02  5920   0.312E+01    0.128E+01
DAV:   3    -0.141148683985E+03   -0.23994E+01   -0.16913E+01  5688   0.371E+01    0.132E+01
DAV:   4    -0.139603218012E+03    0.15455E+01   -0.15417E+01  6140   0.343E+01    0.844E+00
DAV:   5    -0.138545058852E+03    0.10582E+01   -0.21859E+00  8004   0.130E+01    0.497E+00
DAV:   6    -0.138573669003E+03   -0.28610E-01   -0.62104E-01  5784   0.300E+00    0.432E+00
DAV:   7    -0.138575031815E+03   -0.13628E-02   -0.80072E-02  5864   0.115E+00    0.397E+00
DAV:   8    -0.138573320651E+03    0.17112E-02   -0.89908E-03  5936   0.682E-01    0.364E+00
DAV:   9    -0.138567727640E+03    0.55930E-02   -0.60625E-03  6512   0.879E-01    0.235E+00
DAV:  10    -0.138565354022E+03    0.23736E-02   -0.18609E-02  6472   0.148E+00    0.658E-01
DAV:  11    -0.138565964975E+03   -0.61095E-03   -0.90945E-03  5668   0.460E-01    0.550E-01
DAV:  12    -0.138565820177E+03    0.14480E-03   -0.99947E-04  5696   0.137E-01    0.536E-01
DAV:  13    -0.138565363291E+03    0.45689E-03   -0.39497E-04  4960   0.152E-01    0.503E-01
DAV:  14    -0.138565194751E+03    0.16854E-03   -0.20448E-03  5940   0.294E-01    0.307E-01
DAV:  15    -0.138565139727E+03    0.55024E-04   -0.90495E-04  5396   0.152E-01    0.227E-01
DAV:  16    -0.138565153134E+03   -0.13407E-04   -0.10104E-04  5104   0.635E-02    0.202E-01
DAV:  17    -0.138565148721E+03    0.44130E-05   -0.44757E-05  4848   0.625E-02
  20 F= -.15209247E+03 E0= -.15205035E+03  d E =-.231219E+00
       N       E                     dE             d eps       ncg     rms          rms(c)
DAV:   1    -0.135659501062E+03    0.29057E+01   -0.65733E+01  6768   0.912E+01    0.666E+00
DAV:   2    -0.138485317870E+03   -0.28258E+01   -0.28758E+01  5460   0.120E+01    0.332E+00
DAV:   3    -0.138620497828E+03   -0.13518E+00   -0.15616E+00  7712   0.736E+00    0.302E+00
DAV:   4    -0.138654583528E+03   -0.34086E-01   -0.83358E-01  5672   0.766E+00    0.296E+00
DAV:   5    -0.138567799135E+03    0.86784E-01   -0.24903E-01  6228   0.441E+00    0.181E+00
DAV:   6    -0.138567869182E+03   -0.70047E-04   -0.30948E-02  5964   0.859E-01    0.153E+00
DAV:   7    -0.138568341280E+03   -0.47210E-03   -0.66997E-03  6056   0.419E-01    0.125E+00
DAV:   8    -0.138566850169E+03    0.14911E-02   -0.47091E-03  5484   0.553E-01    0.644E-01
DAV:   9    -0.138566585141E+03    0.26503E-03   -0.51138E-03  7496   0.667E-01    0.277E-01
DAV:  10    -0.138566589686E+03   -0.45457E-05   -0.16435E-03  6464   0.228E-01    0.217E-01
DAV:  11    -0.138566584885E+03    0.48008E-05   -0.32364E-04  5176   0.132E-01    0.148E-01
DAV:  12    -0.138566597079E+03   -0.12193E-04   -0.14910E-04  5488   0.115E-01    0.104E-01
DAV:  13    -0.138566629953E+03   -0.32874E-04   -0.73920E-05  5064   0.424E-02    0.685E-02
DAV:  14    -0.138566627493E+03    0.24599E-05   -0.38561E-05  4624   0.467E-02
  21 F= -.15209977E+03 E0= -.15205658E+03  d E =-.238527E+00
       N       E                     dE             d eps       ncg     rms          rms(c)
DAV:   1    -0.135155957961E+03    0.34107E+01   -0.82386E+01  6632   0.104E+02    0.770E+00
DAV:   2    -0.138654575899E+03   -0.34986E+01   -0.35387E+01  5636   0.158E+01    0.553E+00
DAV:   3    -0.138977113919E+03   -0.32254E+00   -0.31123E+00  6300   0.146E+01    0.505E+00
DAV:   4    -0.138954406854E+03    0.22707E-01   -0.35065E+00  6376   0.157E+01    0.449E+00
DAV:   5    -0.138665471073E+03    0.28894E+00   -0.53678E-01  7716   0.692E+00    0.226E+00
DAV:   6    -0.138661615031E+03    0.38560E-02   -0.93789E-02  6192   0.154E+00    0.169E+00
DAV:   7    -0.138661400845E+03    0.21419E-03   -0.22919E-02  5648   0.895E-01    0.140E+00
DAV:   8    -0.138660619721E+03    0.78112E-03   -0.96653E-03  5996   0.711E-01    0.891E-01
DAV:   9    -0.138660180269E+03    0.43945E-03   -0.46661E-03  6800   0.496E-01    0.521E-01
DAV:  10    -0.138660089501E+03    0.90768E-04   -0.23602E-03  5972   0.331E-01    0.357E-01
DAV:  11    -0.138659977469E+03    0.11203E-03   -0.12532E-03  5548   0.358E-01    0.217E-01
DAV:  12    -0.138660007498E+03   -0.30029E-04   -0.33228E-04  5780   0.868E-02    0.148E-01
DAV:  13    -0.138659977187E+03    0.30311E-04   -0.29111E-04  5296   0.115E-01    0.651E-02
DAV:  14    -0.138659989186E+03   -0.11999E-04   -0.90202E-05  4800   0.618E-02    0.625E-02
DAV:  15    -0.138659990886E+03   -0.17006E-05   -0.58270E-05  4604   0.511E-02
  22 F= -.15219622E+03 E0= -.15215200E+03  d E =-.964476E-01
       N       E                     dE             d eps       ncg     rms          rms(c)
DAV:   1    -0.138658666330E+03    0.13229E-02   -0.36417E-02  6568   0.215E+00    0.109E-01
DAV:   2    -0.138660074053E+03   -0.14077E-02   -0.14392E-02  5288   0.260E-01    0.660E-02
DAV:   3    -0.138660110832E+03   -0.36779E-04   -0.47876E-04  5592   0.107E-01    0.436E-02
DAV:   4    -0.138660116843E+03   -0.60112E-05   -0.87157E-05  4508   0.909E-02    0.430E-02
DAV:   5    -0.138660128472E+03   -0.11628E-04   -0.15691E-04  3156   0.108E-01    0.505E-02
DAV:   6    -0.138660108814E+03    0.19658E-04   -0.55844E-05  3052   0.610E-02    0.192E-02
DAV:   7    -0.138660116724E+03   -0.79102E-05   -0.95849E-06  3360   0.268E-02
  23 F= -.15219628E+03 E0= -.15215205E+03  d E =-.965111E-01
       N       E                     dE             d eps       ncg     rms          rms(c)
DAV:   1    -0.137950704442E+03    0.70940E+00   -0.15810E+01  7072   0.527E+01    0.297E+00
DAV:   2    -0.138692066594E+03   -0.74136E+00   -0.75712E+00  5444   0.630E+00    0.154E+00
DAV:   3    -0.138742417599E+03   -0.50351E-01   -0.41999E-01  7580   0.445E+00    0.178E+00
DAV:   4    -0.138724120514E+03    0.18297E-01   -0.28909E-01  6328   0.434E+00    0.132E+00
DAV:   5    -0.138707567655E+03    0.16553E-01   -0.47947E-02  6400   0.195E+00    0.822E-01
DAV:   6    -0.138707800237E+03   -0.23258E-03   -0.83285E-03  5904   0.418E-01    0.659E-01
DAV:   7    -0.138707575990E+03    0.22425E-03   -0.15870E-03  6052   0.257E-01    0.451E-01
DAV:   8    -0.138707481351E+03    0.94638E-04   -0.96949E-04  5932   0.314E-01    0.198E-01
DAV:   9    -0.138707497830E+03   -0.16479E-04   -0.69028E-04  7288   0.205E-01    0.112E-01
DAV:  10    -0.138707515498E+03   -0.17668E-04   -0.20860E-04  5360   0.767E-02    0.887E-02
DAV:  11    -0.138707525746E+03   -0.10249E-04   -0.51871E-05  4648   0.614E-02    0.567E-02
DAV:  12    -0.138707531311E+03   -0.55644E-05   -0.30122E-05  4368   0.451E-02
  24 F= -.15224719E+03 E0= -.15220266E+03  d E =-.509080E-01
       N       E                     dE             d eps       ncg     rms          rms(c)
DAV:   1    -0.137139359932E+03    0.15682E+01   -0.32231E+01  7068   0.757E+01    0.463E+00
DAV:   2    -0.138703662283E+03   -0.15643E+01   -0.15961E+01  5468   0.949E+00    0.254E+00
DAV:   3    -0.138859678264E+03   -0.15602E+00   -0.11366E+00  7512   0.800E+00    0.320E+00
DAV:   4    -0.138775254755E+03    0.84424E-01   -0.94294E-01  6248   0.808E+00    0.211E+00
DAV:   5    -0.138730673454E+03    0.44581E-01   -0.12617E-01  6964   0.316E+00    0.129E+00
DAV:   6    -0.138731661117E+03   -0.98766E-03   -0.25708E-02  5864   0.674E-01    0.106E+00
DAV:   7    -0.138731330593E+03    0.33052E-03   -0.34819E-03  5860   0.327E-01    0.811E-01
DAV:   8    -0.138730868802E+03    0.46179E-03   -0.20206E-03  5892   0.489E-01    0.388E-01
DAV:   9    -0.138730757338E+03    0.11146E-03   -0.15635E-03  7432   0.329E-01    0.202E-01
DAV:  10    -0.138730787057E+03   -0.29720E-04   -0.63969E-04  5752   0.131E-01    0.154E-01
DAV:  11    -0.138730803396E+03   -0.16339E-04   -0.14817E-04  4996   0.100E-01    0.102E-01
DAV:  12    -0.138730820227E+03   -0.16831E-04   -0.50216E-05  4912   0.422E-02    0.699E-02
DAV:  13    -0.138730806900E+03    0.13327E-04   -0.98568E-05  4056   0.758E-02    0.289E-02
DAV:  14    -0.138730813257E+03   -0.63571E-05   -0.17947E-05  3408   0.326E-02
  25 F= -.15227606E+03 E0= -.15223135E+03  d E =-.797732E-01
       N       E                     dE             d eps       ncg     rms          rms(c)
DAV:   1    -0.137689256519E+03    0.10416E+01   -0.22111E+01  6984   0.609E+01    0.375E+00
DAV:   2    -0.138733072574E+03   -0.10438E+01   -0.10678E+01  5424   0.720E+00    0.164E+00
DAV:   3    -0.138772900176E+03   -0.39828E-01   -0.43176E-01  8176   0.377E+00    0.166E+00
DAV:   4    -0.138773398883E+03   -0.49871E-03   -0.16815E-01  6028   0.340E+00    0.144E+00
DAV:   5    -0.138760517554E+03    0.12881E-01   -0.62396E-02  5796   0.212E+00    0.109E+00
DAV:   6    -0.138759940588E+03    0.57697E-03   -0.69693E-03  5996   0.436E-01    0.908E-01
DAV:   7    -0.138759111290E+03    0.82930E-03   -0.23267E-03  6404   0.355E-01    0.600E-01
DAV:   8    -0.138759132884E+03   -0.21593E-04   -0.17646E-03  6028   0.407E-01    0.191E-01
DAV:   9    -0.138759340338E+03   -0.20745E-03   -0.15962E-03  6080   0.282E-01    0.143E-01
DAV:  10    -0.138759345328E+03   -0.49903E-05   -0.26153E-04  5292   0.828E-02    0.134E-01
DAV:  11    -0.138759347949E+03   -0.26210E-05   -0.35516E-05  4504   0.402E-02
  26 F= -.15231510E+03 E0= -.15227052E+03  d E =-.390409E-01
       N       E                     dE             d eps       ncg     rms          rms(c)
DAV:   1    -0.136527287473E+03    0.22321E+01   -0.44537E+01  7000   0.868E+01    0.597E+00
DAV:   2    -0.138715366867E+03   -0.21881E+01   -0.22361E+01  5448   0.108E+01    0.286E+00
DAV:   3    -0.138874480967E+03   -0.15911E+00   -0.13057E+00  8040   0.852E+00    0.345E+00
DAV:   4    -0.138811027753E+03    0.63453E-01   -0.91240E-01  6112   0.795E+00    0.241E+00
DAV:   5    -0.138763316888E+03    0.47711E-01   -0.18164E-01  6244   0.362E+00    0.167E+00
DAV:   6    -0.138765298061E+03   -0.19812E-02   -0.30882E-02  5644   0.670E-01    0.147E+00
DAV:   7    -0.138764001979E+03    0.12961E-02   -0.34019E-03  6236   0.364E-01    0.119E+00
DAV:   8    -0.138762984879E+03    0.10171E-02   -0.25599E-03  5920   0.564E-01    0.581E-01
DAV:   9    -0.138763071306E+03   -0.86427E-04   -0.27762E-03  7412   0.392E-01    0.229E-01
DAV:  10    -0.138763162983E+03   -0.91677E-04   -0.11077E-03  5528   0.159E-01    0.189E-01
DAV:  11    -0.138763217928E+03   -0.54945E-04   -0.12253E-04  5060   0.739E-02    0.170E-01
DAV:  12    -0.138763209246E+03    0.86824E-05   -0.64924E-05  5044   0.614E-02
  27 F= -.15233386E+03 E0= -.15228987E+03  d E =-.578026E-01
       N       E                     dE             d eps       ncg     rms          rms(c)
DAV:   1    -0.138158264209E+03    0.60495E+00   -0.12795E+01  6944   0.447E+01    0.275E+00
DAV:   2    -0.138760118498E+03   -0.60185E+00   -0.61562E+00  5432   0.533E+00    0.136E+00
DAV:   3    -0.138791480957E+03   -0.31362E-01   -0.28967E-01  7880   0.343E+00    0.148E+00
DAV:   4    -0.138787091700E+03    0.43893E-02   -0.18880E-01  5924   0.358E+00    0.126E+00
DAV:   5    -0.138771760662E+03    0.15331E-01   -0.41933E-02  6124   0.174E+00    0.774E-01
DAV:   6    -0.138771922244E+03   -0.16158E-03   -0.55445E-03  5952   0.357E-01    0.635E-01
DAV:   7    -0.138771862746E+03    0.59498E-04   -0.13054E-03  5808   0.222E-01    0.458E-01
DAV:   8    -0.138771788243E+03    0.74503E-04   -0.76451E-04  5648   0.254E-01    0.208E-01
DAV:   9    -0.138771828354E+03   -0.40111E-04   -0.64765E-04  7500   0.178E-01    0.105E-01
DAV:  10    -0.138771854181E+03   -0.25827E-04   -0.23504E-04  5232   0.714E-02    0.859E-02
DAV:  11    -0.138771861332E+03   -0.71512E-05   -0.31001E-05  4232   0.485E-02
  28 F= -.15234971E+03 E0= -.15230619E+03  d E =-.158454E-01
       N       E                     dE             d eps       ncg     rms          rms(c)
DAV:   1    -0.138321726797E+03    0.45013E+00   -0.95002E+00  6948   0.384E+01    0.227E+00
DAV:   2    -0.138761099974E+03   -0.43937E+00   -0.44859E+00  5252   0.459E+00    0.119E+00
DAV:   3    -0.138795835317E+03   -0.34735E-01   -0.27106E-01  7460   0.361E+00    0.148E+00
DAV:   4    -0.138780146898E+03    0.15688E-01   -0.18723E-01  6184   0.349E+00    0.103E+00
DAV:   5    -0.138770491114E+03    0.96558E-02   -0.28802E-02  6504   0.142E+00    0.652E-01
DAV:   6    -0.138770615958E+03   -0.12484E-03   -0.48789E-03  5936   0.326E-01    0.532E-01
DAV:   7    -0.138770557020E+03    0.58938E-04   -0.10478E-03  5956   0.195E-01    0.380E-01
DAV:   8    -0.138770533865E+03    0.23155E-04   -0.51529E-04  5568   0.212E-01    0.186E-01
DAV:   9    -0.138770576858E+03   -0.42993E-04   -0.44244E-04  7440   0.147E-01    0.923E-02
DAV:  10    -0.138770593463E+03   -0.16605E-04   -0.16962E-04  5168   0.627E-02    0.732E-02
DAV:  11    -0.138770599630E+03   -0.61670E-05   -0.23536E-05  3608   0.412E-02
  29 F= -.15235462E+03 E0= -.15231153E+03  d E =-.207644E-01
       N       E                     dE             d eps       ncg     rms          rms(c)
DAV:   1    -0.138371512812E+03    0.39908E+00   -0.85118E+00  7004   0.363E+01    0.206E+00
DAV:   2    -0.138765797466E+03   -0.39428E+00   -0.40305E+00  5356   0.407E+00    0.874E-01
DAV:   3    -0.138779058714E+03   -0.13261E-01   -0.14357E-01  8056   0.171E+00    0.803E-01
DAV:   4    -0.138780604428E+03   -0.15457E-02   -0.45356E-02  5872   0.173E+00    0.803E-01
DAV:   5    -0.138775993914E+03    0.46105E-02   -0.13799E-02  5776   0.944E-01    0.566E-01
DAV:   6    -0.138776026479E+03   -0.32565E-04   -0.16031E-03  5712   0.188E-01    0.475E-01
DAV:   7    -0.138776020573E+03    0.59057E-05   -0.51239E-04  5840   0.186E-01    0.322E-01
DAV:   8    -0.138775982675E+03    0.37898E-04   -0.66762E-04  5992   0.238E-01    0.812E-02
DAV:   9    -0.138776040549E+03   -0.57873E-04   -0.36703E-04  7008   0.967E-02    0.584E-02
DAV:  10    -0.138776048996E+03   -0.84474E-05   -0.57591E-05  4784   0.349E-02
  30 F= -.15236501E+03 E0= -.15232216E+03  d E =-.103889E-01
       N       E                     dE             d eps       ncg     rms          rms(c)
DAV:   1    -0.137901732725E+03    0.87431E+00   -0.18085E+01  7104   0.526E+01    0.320E+00
DAV:   2    -0.138752191333E+03   -0.85046E+00   -0.86960E+00  5348   0.602E+00    0.133E+00
DAV:   3    -0.138779381297E+03   -0.27190E-01   -0.32101E-01  7296   0.229E+00    0.116E+00
DAV:   4    -0.138784631320E+03   -0.52500E-02   -0.71771E-02  5920   0.220E+00    0.119E+00
DAV:   5    -0.138776210789E+03    0.84205E-02   -0.29417E-02  5808   0.141E+00    0.881E-01
DAV:   6    -0.138775932001E+03    0.27879E-03   -0.30180E-03  5864   0.318E-01    0.743E-01
DAV:   7    -0.138775891381E+03    0.40620E-04   -0.11975E-03  5944   0.258E-01    0.509E-01
DAV:   8    -0.138775629412E+03    0.26197E-03   -0.19364E-03  5680   0.378E-01    0.127E-01
DAV:   9    -0.138775754133E+03   -0.12472E-03   -0.76694E-04  7324   0.142E-01    0.104E-01
DAV:  10    -0.138775755703E+03   -0.15695E-05   -0.16067E-04  4928   0.678E-02    0.785E-02
DAV:  11    -0.138775758770E+03   -0.30670E-05   -0.21153E-05  3632   0.425E-02
  31 F= -.15237188E+03 E0= -.15232933E+03  d E =-.172510E-01
       N       E                     dE             d eps       ncg     rms          rms(c)
DAV:   1    -0.138553723255E+03    0.22203E+00   -0.47833E+00  7008   0.269E+01    0.152E+00
DAV:   2    -0.138775192628E+03   -0.22147E+00   -0.22607E+00  5320   0.305E+00    0.688E-01
DAV:   3    -0.138780478244E+03   -0.52856E-02   -0.66886E-02  6840   0.103E+00    0.531E-01
DAV:   4    -0.138780173094E+03    0.30515E-03   -0.53188E-03  5852   0.588E-01    0.457E-01
DAV:   5    -0.138780077609E+03    0.95485E-04   -0.24033E-03  5600   0.408E-01    0.423E-01
DAV:   6    -0.138779782575E+03    0.29503E-03   -0.95285E-04  5372   0.244E-01    0.361E-01
DAV:   7    -0.138779790984E+03   -0.84087E-05   -0.56955E-04  6212   0.200E-01    0.187E-01
DAV:   8    -0.138779758737E+03    0.32247E-04   -0.50750E-04  6204   0.170E-01    0.469E-02
DAV:   9    -0.138779769837E+03   -0.11100E-04   -0.20772E-04  6408   0.840E-02    0.417E-02
DAV:  10    -0.138779775541E+03   -0.57034E-05   -0.41798E-05  4676   0.318E-02
  32 F= -.15237929E+03 E0= -.15233681E+03  d E =-.741589E-02
       N       E                     dE             d eps       ncg     rms          rms(c)
DAV:   1    -0.138056758690E+03    0.72301E+00   -0.14872E+01  7128   0.477E+01    0.293E+00
DAV:   2    -0.138763092868E+03   -0.70633E+00   -0.72088E+00  5316   0.559E+00    0.132E+00
DAV:   3    -0.138788741942E+03   -0.25649E-01   -0.28489E-01  7816   0.275E+00    0.121E+00
DAV:   4    -0.138793423467E+03   -0.46815E-02   -0.10909E-01  5904   0.271E+00    0.121E+00
DAV:   5    -0.138781903125E+03    0.11520E-01   -0.35518E-02  5744   0.158E+00    0.815E-01
DAV:   6    -0.138781919516E+03   -0.16391E-04   -0.37581E-03  5932   0.303E-01    0.701E-01
DAV:   7    -0.138781800700E+03    0.11882E-03   -0.88140E-04  5496   0.174E-01    0.548E-01
DAV:   8    -0.138781560887E+03    0.23981E-03   -0.73386E-04  5548   0.257E-01    0.245E-01
DAV:   9    -0.138781588808E+03   -0.27921E-04   -0.10692E-03  7520   0.277E-01    0.106E-01
DAV:  10    -0.138781612185E+03   -0.23377E-04   -0.31979E-04  5208   0.795E-02    0.859E-02
DAV:  11    -0.138781614287E+03   -0.21019E-05   -0.26206E-05  4212   0.382E-02
  33 F= -.15238718E+03 E0= -.15234477E+03  d E =-.153021E-01
       N       E                     dE             d eps       ncg     rms          rms(c)
DAV:   1    -0.135778190844E+03    0.30034E+01   -0.58896E+01  7172   0.951E+01    0.715E+00
DAV:   2    -0.138716630373E+03   -0.29384E+01   -0.29988E+01  5528   0.125E+01    0.368E+00
DAV:   3    -0.138905560313E+03   -0.18893E+00   -0.16853E+00  7736   0.991E+00    0.388E+00
DAV:   4    -0.138875330318E+03    0.30230E-01   -0.15175E+00  6136   0.102E+01    0.324E+00
DAV:   5    -0.138764071597E+03    0.11126E+00   -0.26821E-01  6572   0.456E+00    0.195E+00
DAV:   6    -0.138766661737E+03   -0.25901E-02   -0.46393E-02  5740   0.775E-01    0.171E+00
DAV:   7    -0.138766114356E+03    0.54738E-03   -0.46380E-03  6184   0.334E-01    0.148E+00
DAV:   8    -0.138765178282E+03    0.93607E-03   -0.11594E-03  5960   0.329E-01    0.104E+00
DAV:   9    -0.138764518514E+03    0.65977E-03   -0.30606E-03  7832   0.517E-01    0.278E-01
DAV:  10    -0.138764595928E+03   -0.77415E-04   -0.18796E-03  6024   0.162E-01    0.215E-01
DAV:  11    -0.138764618090E+03   -0.22162E-04   -0.17598E-04  5032   0.714E-02    0.188E-01
DAV:  12    -0.138764636816E+03   -0.18725E-04   -0.59366E-05  5248   0.512E-02    0.140E-01
DAV:  13    -0.138764620168E+03    0.16647E-04   -0.13369E-04  4472   0.102E-01    0.757E-02
DAV:  14    -0.138764629655E+03   -0.94867E-05   -0.67846E-05  4952   0.495E-02
  34 F= -.15238246E+03 E0= -.15234023E+03  d E =-.105806E-01
       N       E                     dE             d eps       ncg     rms          rms(c)
DAV:   1    -0.137459258788E+03    0.13054E+01   -0.26532E+01  7116   0.638E+01    0.420E+00
DAV:   2    -0.138747813196E+03   -0.12886E+01   -0.13141E+01  5388   0.771E+00    0.192E+00
DAV:   3    -0.138835061258E+03   -0.87248E-01   -0.71340E-01  8148   0.537E+00    0.236E+00
DAV:   4    -0.138799161240E+03    0.35900E-01   -0.43874E-01  5940   0.528E+00    0.166E+00
DAV:   5    -0.138779382439E+03    0.19779E-01   -0.61399E-02  5904   0.218E+00    0.115E+00
DAV:   6    -0.138779856035E+03   -0.47360E-03   -0.13195E-02  5984   0.431E-01    0.993E-01
DAV:   7    -0.138779427063E+03    0.42897E-03   -0.12895E-03  5776   0.231E-01    0.781E-01
DAV:   8    -0.138779049180E+03    0.37788E-03   -0.94710E-04  6344   0.327E-01    0.389E-01
DAV:   9    -0.138778993217E+03    0.55964E-04   -0.13005E-03  6852   0.291E-01    0.146E-01
DAV:  10    -0.138779040208E+03   -0.46991E-04   -0.49135E-04  6064   0.100E-01    0.116E-01
DAV:  11    -0.138779051896E+03   -0.11688E-04   -0.57499E-05  4712   0.521E-02    0.951E-02
DAV:  12    -0.138779046201E+03    0.56945E-05   -0.80549E-05  4736   0.879E-02
  35 F= -.15238863E+03 E0= -.15234632E+03  d E =-.167550E-01
       N       E                     dE             d eps       ncg     rms          rms(c)
DAV:   1    -0.138499188331E+03    0.27986E+00   -0.62484E+00  6904   0.311E+01    0.171E+00
DAV:   2    -0.138774439472E+03   -0.27525E+00   -0.28103E+00  5380   0.349E+00    0.690E-01
DAV:   3    -0.138784135287E+03   -0.96958E-02   -0.97733E-02  7648   0.124E+00    0.676E-01
DAV:   4    -0.138783203428E+03    0.93186E-03   -0.27058E-02  5988   0.128E+00    0.598E-01
DAV:   5    -0.138781543469E+03    0.16600E-02   -0.60933E-03  5656   0.665E-01    0.454E-01
DAV:   6    -0.138781453454E+03    0.90015E-04   -0.90759E-04  5932   0.189E-01    0.366E-01
DAV:   7    -0.138781416296E+03    0.37158E-04   -0.40991E-04  5176   0.199E-01    0.162E-01
DAV:   8    -0.138781484038E+03   -0.67742E-04   -0.40342E-04  7372   0.133E-01    0.604E-02
DAV:   9    -0.138781485791E+03   -0.17525E-05   -0.16362E-04  5656   0.101E-01    0.394E-02
DAV:  10    -0.138781490313E+03   -0.45220E-05   -0.26194E-05  4016   0.258E-02
  36 F= -.15239533E+03 E0= -.15235295E+03  d E =-.669909E-02
       N       E                     dE             d eps       ncg     rms          rms(c)
DAV:   1    -0.136104472875E+03    0.26770E+01   -0.55057E+01  7012   0.931E+01    0.664E+00
DAV:   2    -0.138717447221E+03   -0.26130E+01   -0.26669E+01  5480   0.116E+01    0.306E+00
DAV:   3    -0.138836479524E+03   -0.11903E+00   -0.12726E+00  7972   0.756E+00    0.293E+00
DAV:   4    -0.138848377452E+03   -0.11898E-01   -0.74676E-01  5940   0.708E+00    0.273E+00
DAV:   5    -0.138782794511E+03    0.65583E-01   -0.16798E-01  5988   0.354E+00    0.178E+00
DAV:   6    -0.138784124971E+03   -0.13305E-02   -0.25109E-02  5824   0.605E-01    0.155E+00
DAV:   7    -0.138783544709E+03    0.58026E-03   -0.30525E-03  6168   0.317E-01    0.127E+00
DAV:   8    -0.138782663250E+03    0.88146E-03   -0.16199E-03  5664   0.443E-01    0.681E-01
DAV:   9    -0.138782621494E+03    0.41756E-04   -0.25600E-03  8428   0.418E-01    0.226E-01
DAV:  10    -0.138782681941E+03   -0.60447E-04   -0.10887E-03  6136   0.162E-01    0.173E-01
DAV:  11    -0.138782717482E+03   -0.35541E-04   -0.13964E-04  5248   0.908E-02    0.147E-01
DAV:  12    -0.138782725626E+03   -0.81442E-05   -0.74775E-05  5084   0.785E-02
  37 F= -.15240950E+03 E0= -.15236693E+03  d E =-.208684E-01
       N       E                     dE             d eps       ncg     rms          rms(c)
DAV:   1    -0.127698935910E+03    0.11084E+02   -0.22025E+02  7288   0.184E+02    0.190E+01
DAV:   2    -0.138736554129E+03   -0.11038E+02   -0.11197E+02  5748   0.281E+01    0.103E+01
DAV:   3    -0.139917565798E+03   -0.11810E+01   -0.91746E+00  5820   0.270E+01    0.101E+01
DAV:   4    -0.139382875037E+03    0.53469E+00   -0.10194E+01  6512   0.263E+01    0.748E+00
DAV:   5    -0.138739844878E+03    0.64303E+00   -0.14940E+00  8272   0.103E+01    0.485E+00
DAV:   6    -0.138757999160E+03   -0.18154E-01   -0.35710E-01  5832   0.230E+00    0.431E+00
DAV:   7    -0.138759126009E+03   -0.11268E-02   -0.41722E-02  5752   0.810E-01    0.405E+00
DAV:   8    -0.138758181971E+03    0.94404E-03   -0.36064E-03  5896   0.404E-01    0.382E+00
DAV:   9    -0.138752790820E+03    0.53912E-02   -0.34538E-03  5760   0.665E-01    0.264E+00
DAV:  10    -0.138749296159E+03    0.34947E-02   -0.19448E-02  5920   0.156E+00    0.612E-01
DAV:  11    -0.138750240966E+03   -0.94481E-03   -0.10481E-02  5628   0.407E-01    0.550E-01
DAV:  12    -0.138750178535E+03    0.62431E-04   -0.74183E-04  5588   0.113E-01    0.529E-01
DAV:  13    -0.138749866495E+03    0.31204E-03   -0.23561E-04  5144   0.142E-01    0.487E-01
DAV:  14    -0.138749907982E+03   -0.41487E-04   -0.13791E-03  5628   0.302E-01    0.317E-01
DAV:  15    -0.138749865659E+03    0.42323E-04   -0.67576E-04  5312   0.154E-01    0.246E-01
DAV:  16    -0.138749857302E+03    0.83569E-05   -0.13412E-04  5112   0.570E-02    0.223E-01
DAV:  17    -0.138749841384E+03    0.15919E-04   -0.34854E-05  4648   0.373E-02    0.187E-01
DAV:  18    -0.138749817250E+03    0.24133E-04   -0.32669E-05  4608   0.394E-02    0.142E-01
DAV:  19    -0.138749793334E+03    0.23916E-04   -0.85154E-05  4792   0.567E-02    0.726E-02
DAV:  20    -0.138749797704E+03   -0.43701E-05   -0.20148E-05  3256   0.207E-02
  38 F= -.15240358E+03 E0= -.15236057E+03  d E =-.149486E-01
       N       E                     dE             d eps       ncg     rms          rms(c)
DAV:   1    -0.134240283581E+03    0.45095E+01   -0.91981E+01  7004   0.121E+02    0.972E+00
DAV:   2    -0.138750978495E+03   -0.45107E+01   -0.45803E+01  5588   0.165E+01    0.523E+00
DAV:   3    -0.139419146186E+03   -0.66817E+00   -0.42545E+00  7020   0.169E+01    0.680E+00
DAV:   4    -0.138908618410E+03    0.51053E+00   -0.40334E+00  6532   0.161E+01    0.379E+00
DAV:   5    -0.138776235890E+03    0.13238E+00   -0.40620E-01  7844   0.531E+00    0.259E+00
DAV:   6    -0.138780591533E+03   -0.43556E-02   -0.97447E-02  5708   0.117E+00    0.229E+00
DAV:   7    -0.138780394616E+03    0.19692E-03   -0.95155E-03  5968   0.436E-01    0.210E+00
DAV:   8    -0.138779630361E+03    0.76426E-03   -0.17636E-03  6008   0.381E-01    0.177E+00
DAV:   9    -0.138777417320E+03    0.22130E-02   -0.30408E-03  6500   0.599E-01    0.822E-01
DAV:  10    -0.138777137002E+03    0.28032E-03   -0.52965E-03  7492   0.676E-01    0.312E-01
DAV:  11    -0.138777260590E+03   -0.12359E-03   -0.18469E-03  5312   0.154E-01    0.286E-01
DAV:  12    -0.138777241909E+03    0.18681E-04   -0.10235E-04  5296   0.520E-02    0.270E-01
DAV:  13    -0.138777224110E+03    0.17799E-04   -0.12368E-04  3480   0.866E-02    0.234E-01
DAV:  14    -0.138777263200E+03   -0.39090E-04   -0.31200E-04  6548   0.130E-01    0.103E-01
DAV:  15    -0.138777269313E+03   -0.61133E-05   -0.15269E-04  5076   0.623E-02    0.919E-02
DAV:  16    -0.138777266878E+03    0.24359E-05   -0.18618E-05  3264   0.169E-02
  39 F= -.15241339E+03 E0= -.15237066E+03  d E =-.247599E-01
       N       E                     dE             d eps       ncg     rms          rms(c)
DAV:   1    -0.138254221034E+03    0.52305E+00   -0.12469E+01  6764   0.446E+01    0.236E+00
DAV:   2    -0.138770760086E+03   -0.51654E+00   -0.52745E+00  5452   0.513E+00    0.109E+00
DAV:   3    -0.138791116750E+03   -0.20357E-01   -0.21056E-01  7876   0.251E+00    0.101E+00
DAV:   4    -0.138792829079E+03   -0.17123E-02   -0.91863E-02  5984   0.243E+00    0.991E-01
DAV:   5    -0.138784417993E+03    0.84111E-02   -0.23235E-02  5656   0.131E+00    0.642E-01
DAV:   6    -0.138784436849E+03   -0.18856E-04   -0.29780E-03  6056   0.311E-01    0.506E-01
DAV:   7    -0.138784449065E+03   -0.12216E-04   -0.95834E-04  5860   0.245E-01    0.293E-01
DAV:   8    -0.138784461305E+03   -0.12240E-04   -0.88659E-04  6136   0.255E-01    0.108E-01
DAV:   9    -0.138784494792E+03   -0.33487E-04   -0.46430E-04  7208   0.157E-01    0.791E-02
DAV:  10    -0.138784501165E+03   -0.63733E-05   -0.10883E-04  5036   0.556E-02    0.641E-02
DAV:  11    -0.138784506090E+03   -0.49243E-05   -0.27144E-05  4204   0.480E-02
  40 F= -.15242489E+03 E0= -.15238208E+03  d E =-.114982E-01
       N       E                     dE             d eps       ncg     rms          rms(c)
DAV:   1    -0.138343014891E+03    0.44149E+00   -0.10481E+01  6772   0.409E+01    0.213E+00
DAV:   2    -0.138779891901E+03   -0.43688E+00   -0.44611E+00  5476   0.467E+00    0.103E+00
DAV:   3    -0.138791910816E+03   -0.12019E-01   -0.12584E-01  7860   0.222E+00    0.933E-01
DAV:   4    -0.138791922290E+03   -0.11474E-04   -0.69496E-02  5952   0.215E+00    0.871E-01
DAV:   5    -0.138785700146E+03    0.62221E-02   -0.18173E-02  5696   0.117E+00    0.575E-01
DAV:   6    -0.138785662708E+03    0.37439E-04   -0.24779E-03  6168   0.292E-01    0.445E-01
DAV:   7    -0.138785670798E+03   -0.80904E-05   -0.80866E-04  5808   0.229E-01    0.264E-01
DAV:   8    -0.138785700124E+03   -0.29326E-04   -0.70933E-04  6168   0.220E-01    0.105E-01
DAV:   9    -0.138785734449E+03   -0.34325E-04   -0.38844E-04  7116   0.145E-01    0.656E-02
DAV:  10    -0.138785742138E+03   -0.76896E-05   -0.89465E-05  5048   0.459E-02
  41 F= -.15243011E+03 E0= -.15238728E+03  d E =-.167188E-01
       N       E                     dE             d eps       ncg     rms          rms(c)
DAV:   1    -0.138719382280E+03    0.66352E-01   -0.15935E+00  6824   0.159E+01    0.760E-01
DAV:   2    -0.138783109098E+03   -0.63727E-01   -0.65076E-01  5368   0.180E+00    0.398E-01
DAV:   3    -0.138786358097E+03   -0.32490E-02   -0.27856E-02  5592   0.108E+00    0.403E-01
DAV:   4    -0.138785313134E+03    0.10450E-02   -0.14057E-02  6560   0.945E-01    0.303E-01
DAV:   5    -0.138784609868E+03    0.70327E-03   -0.26928E-03  7648   0.410E-01    0.209E-01
DAV:   6    -0.138784618270E+03   -0.84017E-05   -0.36679E-04  5760   0.115E-01    0.155E-01
DAV:   7    -0.138784647350E+03   -0.29080E-04   -0.14288E-04  5168   0.929E-02    0.106E-01
DAV:   8    -0.138784675516E+03   -0.28166E-04   -0.10626E-04  5288   0.872E-02    0.358E-02
DAV:   9    -0.138784685043E+03   -0.95268E-05   -0.59326E-05  5216   0.492E-02
  42 F= -.15243062E+03 E0= -.15238778E+03  d E =-.172307E-01
       N       E                     dE             d eps       ncg     rms          rms(c)
DAV:   1    -0.138071366231E+03    0.71331E+00   -0.16345E+01  7036   0.507E+01    0.286E+00
DAV:   2    -0.138770981468E+03   -0.69962E+00   -0.71426E+00  5388   0.578E+00    0.124E+00
DAV:   3    -0.138808158018E+03   -0.37177E-01   -0.33611E-01  8100   0.325E+00    0.138E+00
DAV:   4    -0.138801108086E+03    0.70499E-02   -0.14928E-01  5912   0.298E+00    0.107E+00
DAV:   5    -0.138793041015E+03    0.80671E-02   -0.28580E-02  5660   0.145E+00    0.765E-01
DAV:   6    -0.138793026790E+03    0.14225E-04   -0.47182E-03  6056   0.345E-01    0.650E-01
DAV:   7    -0.138792958919E+03    0.67871E-04   -0.10970E-03  5864   0.217E-01    0.462E-01
DAV:   8    -0.138793013134E+03   -0.54216E-04   -0.85323E-04  5632   0.271E-01    0.194E-01
DAV:   9    -0.138793144289E+03   -0.13115E-03   -0.74145E-04  7464   0.209E-01    0.967E-02
DAV:  10    -0.138793175726E+03   -0.31437E-04   -0.19300E-04  5352   0.675E-02    0.812E-02
DAV:  11    -0.138793185790E+03   -0.10065E-04   -0.29609E-05  4248   0.452E-02    0.544E-02
DAV:  12    -0.138793182983E+03    0.28069E-05   -0.45595E-05  3732   0.713E-02
  43 F= -.15244173E+03 E0= -.15239908E+03  d E =-.111100E-01
       N       E                     dE             d eps       ncg     rms          rms(c)
DAV:   1    -0.137757327638E+03    0.10359E+01   -0.23223E+01  7020   0.606E+01    0.354E+00
DAV:   2    -0.138761767368E+03   -0.10044E+01   -0.10253E+01  5396   0.694E+00    0.155E+00
DAV:   3    -0.138816403095E+03   -0.54636E-01   -0.50083E-01  8144   0.403E+00    0.172E+00
DAV:   4    -0.138807488045E+03    0.89151E-02   -0.23588E-01  5976   0.374E+00    0.136E+00
DAV:   5    -0.138793720557E+03    0.13767E-01   -0.45979E-02  5712   0.185E+00    0.951E-01
DAV:   6    -0.138793742929E+03   -0.22373E-04   -0.73579E-03  5968   0.416E-01    0.816E-01
DAV:   7    -0.138793612147E+03    0.13078E-03   -0.15332E-03  5896   0.241E-01    0.609E-01
DAV:   8    -0.138793585850E+03    0.26297E-04   -0.11996E-03  5536   0.333E-01    0.260E-01
DAV:   9    -0.138793761630E+03   -0.17578E-03   -0.10948E-03  7600   0.259E-01    0.125E-01
DAV:  10    -0.138793810912E+03   -0.49282E-04   -0.30811E-04  5784   0.897E-02    0.104E-01
DAV:  11    -0.138793823764E+03   -0.12853E-04   -0.46312E-05  4608   0.564E-02    0.736E-02
DAV:  12    -0.138793816530E+03    0.72347E-05   -0.71850E-05  4708   0.882E-02
  44 F= -.15244562E+03 E0= -.15240319E+03  d E =-.150029E-01
       N       E                     dE             d eps       ncg     rms          rms(c)
DAV:   1    -0.138065065966E+03    0.72876E+00   -0.15857E+01  7100   0.505E+01    0.293E+00
DAV:   2    -0.138783141465E+03   -0.71808E+00   -0.73489E+00  5440   0.578E+00    0.131E+00
DAV:   3    -0.138831849866E+03   -0.48708E-01   -0.38892E-01  8244   0.373E+00    0.162E+00
DAV:   4    -0.138813999368E+03    0.17850E-01   -0.21635E-01  6008   0.357E+00    0.116E+00
DAV:   5    -0.138804359304E+03    0.96401E-02   -0.27333E-02  5988   0.140E+00    0.790E-01
DAV:   6    -0.138804686035E+03   -0.32673E-03   -0.57600E-03  5756   0.366E-01    0.684E-01
DAV:   7    -0.138804852278E+03   -0.16624E-03   -0.10510E-03  5936   0.192E-01    0.506E-01
DAV:   8    -0.138804963066E+03   -0.11079E-03   -0.76477E-04  5536   0.301E-01    0.173E-01
DAV:   9    -0.138805125630E+03   -0.16256E-03   -0.74365E-04  7516   0.167E-01    0.854E-02
DAV:  10    -0.138805148680E+03   -0.23049E-04   -0.23804E-04  5320   0.864E-02    0.709E-02
DAV:  11    -0.138805155301E+03   -0.66211E-05   -0.25947E-05  4200   0.383E-02
  45 F= -.15245466E+03 E0= -.15241233E+03  d E =-.903856E-02
       N       E                     dE             d eps       ncg     rms          rms(c)
DAV:   1    -0.137424393230E+03    0.13808E+01   -0.28733E+01  7088   0.683E+01    0.430E+00
DAV:   2    -0.138775792337E+03   -0.13514E+01   -0.13808E+01  5432   0.810E+00    0.207E+00
DAV:   3    -0.138918307790E+03   -0.14252E+00   -0.99405E-01  8068   0.682E+00    0.292E+00
DAV:   4    -0.138833331487E+03    0.84976E-01   -0.70174E-01  6212   0.665E+00    0.170E+00
DAV:   5    -0.138811619854E+03    0.21712E-01   -0.67738E-02  6428   0.220E+00    0.115E+00
DAV:   6    -0.138812554638E+03   -0.93478E-03   -0.16827E-02  5792   0.553E-01    0.101E+00
DAV:   7    -0.138812685953E+03   -0.13132E-03   -0.21128E-03  6128   0.211E-01    0.851E-01
DAV:   8    -0.138812734210E+03   -0.48256E-04   -0.82872E-04  5560   0.335E-01    0.432E-01
DAV:   9    -0.138813028975E+03   -0.29477E-03   -0.13741E-03  8288   0.289E-01    0.141E-01
DAV:  10    -0.138813115238E+03   -0.86263E-04   -0.60909E-04  6664   0.116E-01    0.116E-01
DAV:  11    -0.138813126430E+03   -0.11192E-04   -0.87343E-05  4976   0.493E-02    0.860E-02
DAV:  12    -0.138813141800E+03   -0.15370E-04   -0.23916E-05  3816   0.411E-02    0.593E-02
DAV:  13    -0.138813151216E+03   -0.94158E-05   -0.21030E-05  3408   0.450E-02
  46 F= -.15245966E+03 E0= -.15241752E+03  d E =-.140344E-01
       N       E                     dE             d eps       ncg     rms          rms(c)
DAV:   1    -0.138232774447E+03    0.58037E+00   -0.11954E+01  7064   0.450E+01    0.262E+00
DAV:   2    -0.138806845094E+03   -0.57407E+00   -0.58855E+00  5308   0.512E+00    0.107E+00
DAV:   3    -0.138826823910E+03   -0.19979E-01   -0.20852E-01  7932   0.195E+00    0.104E+00
DAV:   4    -0.138827644484E+03   -0.82057E-03   -0.67576E-02  5976   0.203E+00    0.978E-01
DAV:   5    -0.138822308237E+03    0.53362E-02   -0.24687E-02  5656   0.133E+00    0.724E-01
DAV:   6    -0.138821765418E+03    0.54282E-03   -0.29043E-03  5936   0.371E-01    0.594E-01
DAV:   7    -0.138821814456E+03   -0.49038E-04   -0.13727E-03  5676   0.267E-01    0.362E-01
DAV:   8    -0.138821918270E+03   -0.10381E-03   -0.12326E-03  5920   0.254E-01    0.132E-01
DAV:   9    -0.138822028306E+03   -0.11004E-03   -0.54432E-04  7008   0.176E-01    0.954E-02
DAV:  10    -0.138822024972E+03    0.33340E-05   -0.14919E-04  5016   0.622E-02    0.722E-02
DAV:  11    -0.138822030920E+03   -0.59481E-05   -0.29443E-05  3888   0.479E-02
  47 F= -.15246486E+03 E0= -.15242279E+03  d E =-.520514E-02
       N       E                     dE             d eps       ncg     rms          rms(c)
DAV:   1    -0.138821216770E+03    0.80820E-03   -0.14977E-02  7328   0.158E+00    0.920E-02
DAV:   2    -0.138821911703E+03   -0.69493E-03   -0.70920E-03  5228   0.213E-01    0.532E-02
DAV:   3    -0.138822200743E+03   -0.28904E-03   -0.15226E-03  5772   0.324E-01    0.129E-01
DAV:   4    -0.138821901520E+03    0.29922E-03   -0.73460E-04  4640   0.222E-01    0.220E-02
DAV:   5    -0.138821915205E+03   -0.13685E-04   -0.15544E-05  3320   0.211E-02    0.209E-02
DAV:   6    -0.138821916165E+03   -0.96031E-06   -0.64542E-06  3012   0.954E-03
  48 F= -.15246488E+03 E0= -.15242281E+03  d E =-.521896E-02
       N       E                     dE             d eps       ncg     rms          rms(c)
DAV:   1    -0.138453825593E+03    0.36809E+00   -0.75760E+00  7136   0.367E+01    0.209E+00
DAV:   2    -0.138822243933E+03   -0.36842E+00   -0.37742E+00  5324   0.412E+00    0.882E-01
DAV:   3    -0.138837492544E+03   -0.15249E-01   -0.14130E-01  8304   0.188E+00    0.906E-01
DAV:   4    -0.138835161876E+03    0.23307E-02   -0.56996E-02  5832   0.185E+00    0.782E-01
DAV:   5    -0.138831395786E+03    0.37661E-02   -0.10780E-02  5500   0.890E-01    0.555E-01
DAV:   6    -0.138831454618E+03   -0.58832E-04   -0.17572E-03  5988   0.238E-01    0.470E-01
DAV:   7    -0.138831615845E+03   -0.16123E-03   -0.49577E-04  5352   0.178E-01    0.279E-01
DAV:   8    -0.138831704750E+03   -0.88905E-04   -0.62944E-04  7180   0.188E-01    0.877E-02
DAV:   9    -0.138831758486E+03   -0.53736E-04   -0.23637E-04  7320   0.117E-01    0.566E-02
DAV:  10    -0.138831766872E+03   -0.83863E-05   -0.62485E-05  4852   0.474E-02
  49 F= -.15246860E+03 E0= -.15242643E+03  d E =-.372282E-02
       N       E                     dE             d eps       ncg     rms          rms(c)
DAV:   1    -0.138693289654E+03    0.13847E+00   -0.29393E+00  6948   0.228E+01    0.120E+00
DAV:   2    -0.138832638994E+03   -0.13935E+00   -0.14271E+00  5252   0.254E+00    0.541E-01
DAV:   3    -0.138837136210E+03   -0.44972E-02   -0.45843E-02  8024   0.934E-01    0.467E-01
DAV:   4    -0.138837370654E+03   -0.23444E-03   -0.15901E-02  5908   0.983E-01    0.471E-01
DAV:   5    -0.138835816483E+03    0.15542E-02   -0.42235E-03  5500   0.548E-01    0.324E-01
DAV:   6    -0.138835845501E+03   -0.29018E-04   -0.49770E-04  5736   0.148E-01    0.265E-01
DAV:   7    -0.138835976163E+03   -0.13066E-03   -0.20644E-04  5292   0.131E-01    0.135E-01
DAV:   8    -0.138836024311E+03   -0.48147E-04   -0.29712E-04  6760   0.122E-01    0.403E-02
DAV:   9    -0.138836039363E+03   -0.15053E-04   -0.76469E-05  5380   0.500E-02    0.320E-02
DAV:  10    -0.138836043478E+03   -0.41149E-05   -0.16549E-05  3160   0.214E-02
  50 F= -.15246907E+03 E0= -.15242683E+03  d E =-.419576E-02
       N       E                     dE             d eps       ncg     rms          rms(c)
DAV:   1    -0.138707732800E+03    0.12831E+00   -0.28062E+00  7216   0.229E+01    0.114E+00
DAV:   2    -0.138838639250E+03   -0.13091E+00   -0.13396E+00  5300   0.254E+00    0.497E-01
DAV:   3    -0.138841674839E+03   -0.30356E-02   -0.35501E-02  7012   0.569E-01    0.370E-01
DAV:   4    -0.138842053506E+03   -0.37867E-03   -0.51311E-03  6024   0.516E-01    0.376E-01
DAV:   5    -0.138841345511E+03    0.70800E-03   -0.25648E-03  5488   0.421E-01    0.302E-01
DAV:   6    -0.138841296070E+03    0.49442E-04   -0.24507E-04  6044   0.135E-01    0.254E-01
DAV:   7    -0.138841365552E+03   -0.69483E-04   -0.18952E-04  5220   0.140E-01    0.123E-01
DAV:   8    -0.138841436223E+03   -0.70671E-04   -0.22089E-04  7000   0.102E-01    0.351E-02
DAV:   9    -0.138841451924E+03   -0.15700E-04   -0.66029E-05  5416   0.419E-02    0.260E-02
DAV:  10    -0.138841453596E+03   -0.16722E-05   -0.96105E-06  2956   0.265E-02
  51 F= -.15247029E+03 E0= -.15242800E+03  d E =-.122030E-02
       N       E                     dE             d eps       ncg     rms          rms(c)
DAV:   1    -0.138825375728E+03    0.16076E-01   -0.37787E-01  7164   0.839E+00    0.391E-01
DAV:   2    -0.138842637874E+03   -0.17262E-01   -0.17685E-01  5248   0.936E-01    0.194E-01
DAV:   3    -0.138843252748E+03   -0.61487E-03   -0.58823E-03  6248   0.409E-01    0.166E-01
DAV:   4    -0.138843167197E+03    0.85551E-04   -0.21194E-03  6272   0.360E-01    0.152E-01
DAV:   5    -0.138843009875E+03    0.15732E-03   -0.52647E-04  4100   0.182E-01    0.106E-01
DAV:   6    -0.138843031304E+03   -0.21429E-04   -0.85332E-05  5232   0.547E-02    0.799E-02
DAV:   7    -0.138843056247E+03   -0.24943E-04   -0.27532E-05  3836   0.408E-02    0.525E-02
DAV:   8    -0.138843077992E+03   -0.21745E-04   -0.19272E-05  3496   0.341E-02    0.197E-02
DAV:   9    -0.138843085108E+03   -0.71163E-05   -0.12332E-05  3476   0.222E-02
  52 F= -.15247039E+03 E0= -.15242808E+03  d E =-.132063E-02
       N       E                     dE             d eps       ncg     rms          rms(c)
DAV:   1    -0.138742827714E+03    0.10025E+00   -0.21943E+00  7280   0.205E+01    0.998E-01
DAV:   2    -0.138845668976E+03   -0.10284E+00   -0.10522E+00  5316   0.228E+00    0.462E-01
DAV:   3    -0.138848019479E+03   -0.23505E-02   -0.27569E-02  6644   0.769E-01    0.357E-01
DAV:   4    -0.138848445297E+03   -0.42582E-03   -0.76488E-03  6056   0.707E-01    0.370E-01
DAV:   5    -0.138847530250E+03    0.91505E-03   -0.30288E-03  5808   0.456E-01    0.272E-01
DAV:   6    -0.138847493018E+03    0.37232E-04   -0.32739E-04  6664   0.126E-01    0.221E-01
DAV:   7    -0.138847547806E+03   -0.54787E-04   -0.13420E-04  5624   0.111E-01    0.126E-01
DAV:   8    -0.138847585398E+03   -0.37592E-04   -0.15065E-04  6192   0.107E-01    0.486E-02
DAV:   9    -0.138847609166E+03   -0.23768E-04   -0.61920E-05  5456   0.477E-02    0.252E-02
DAV:  10    -0.138847613775E+03   -0.46090E-05   -0.21191E-05  3500   0.214E-02
  53 F= -.15247099E+03 E0= -.15242863E+03  d E =-.600110E-03
       N       E                     dE             d eps       ncg     rms          rms(c)
DAV:   1    -0.138845488174E+03    0.21210E-02   -0.35151E-02  7336   0.261E+00    0.124E-01
DAV:   2    -0.138847080424E+03   -0.15923E-02   -0.16431E-02  5192   0.295E-01    0.612E-02
DAV:   3    -0.138847136257E+03   -0.55833E-04   -0.56759E-04  5356   0.132E-01    0.461E-02
DAV:   4    -0.138847124745E+03    0.11512E-04   -0.53170E-05  4220   0.536E-02    0.342E-02
DAV:   5    -0.138847123752E+03    0.99308E-06   -0.82626E-06  3028   0.222E-02
  54 F= -.15247100E+03 E0= -.15242865E+03  d E =-.605213E-03
       N       E                     dE             d eps       ncg     rms          rms(c)
DAV:   1    -0.138790627277E+03    0.56497E-01   -0.12484E+00  7308   0.157E+01    0.767E-01
DAV:   2    -0.138848644537E+03   -0.58017E-01   -0.59400E-01  5256   0.176E+00    0.330E-01
DAV:   3    -0.138851773602E+03   -0.31291E-02   -0.24414E-02  7628   0.924E-01    0.392E-01
DAV:   4    -0.138850130633E+03    0.16430E-02   -0.85340E-03  6272   0.723E-01    0.238E-01
DAV:   5    -0.138850009575E+03    0.12106E-03   -0.78127E-04  6748   0.215E-01    0.188E-01
DAV:   6    -0.138850017557E+03   -0.79826E-05   -0.19715E-04  5256   0.696E-02    0.163E-01
DAV:   7    -0.138850059849E+03   -0.42292E-04   -0.36471E-05  3740   0.616E-02    0.107E-01
DAV:   8    -0.138850118355E+03   -0.58505E-04   -0.82110E-05  5820   0.856E-02    0.277E-02
DAV:   9    -0.138850132256E+03   -0.13901E-04   -0.37538E-05  4512   0.312E-02    0.177E-02
DAV:  10    -0.138850134358E+03   -0.21019E-05   -0.10203E-05  3064   0.131E-02
  55 F= -.15247141E+03 E0= -.15242905E+03  d E =-.412565E-03
       N       E                     dE             d eps       ncg     rms          rms(c)
DAV:   1    -0.138846834012E+03    0.32982E-02   -0.84630E-02  7260   0.410E+00    0.186E-01
DAV:   2    -0.138850718645E+03   -0.38846E-02   -0.39902E-02  5176   0.456E-01    0.880E-02
DAV:   3    -0.138850822315E+03   -0.10367E-03   -0.10963E-03  5560   0.104E-01    0.584E-02
DAV:   4    -0.138850819626E+03    0.26897E-05   -0.89314E-05  4240   0.536E-02    0.554E-02
DAV:   5    -0.138850806568E+03    0.13057E-04   -0.27423E-05  3172   0.424E-02    0.486E-02
DAV:   6    -0.138850811199E+03   -0.46304E-05   -0.67166E-06  2944   0.271E-02
  56 F= -.15247141E+03 E0= -.15242906E+03  d E =-.414783E-03
       N       E                     dE             d eps       ncg     rms          rms(c)
DAV:   1    -0.138826923179E+03    0.23883E-01   -0.55258E-01  7196   0.107E+01    0.470E-01
DAV:   2    -0.138851709222E+03   -0.24786E-01   -0.25353E-01  5296   0.118E+00    0.228E-01
DAV:   3    -0.138852456397E+03   -0.74717E-03   -0.80776E-03  5652   0.423E-01    0.171E-01
DAV:   4    -0.138852513711E+03   -0.57315E-04   -0.19558E-03  5924   0.357E-01    0.174E-01
DAV:   5    -0.138852319111E+03    0.19460E-03   -0.90869E-04  5288   0.248E-01    0.133E-01
DAV:   6    -0.138852310644E+03    0.84667E-05   -0.12016E-04  5544   0.816E-02    0.985E-02
DAV:   7    -0.138852338771E+03   -0.28127E-04   -0.40419E-05  4136   0.560E-02    0.600E-02
DAV:   8    -0.138852358167E+03   -0.19396E-04   -0.38869E-05  4736   0.490E-02    0.285E-02
DAV:   9    -0.138852369388E+03   -0.11221E-04   -0.13503E-05  3332   0.252E-02    0.141E-02
DAV:  10    -0.138852371651E+03   -0.22624E-05   -0.83177E-06  2928   0.126E-02
  57 F= -.15247164E+03 E0= -.15242930E+03  d E =-.228726E-03
       N       E                     dE             d eps       ncg     rms          rms(c)
DAV:   1    -0.138851874409E+03    0.49498E-03   -0.15714E-02  6984   0.180E+00    0.780E-02
DAV:   2    -0.138852573673E+03   -0.69926E-03   -0.72200E-03  5200   0.199E-01    0.395E-02
DAV:   3    -0.138852597085E+03   -0.23413E-04   -0.22091E-04  4116   0.682E-02    0.269E-02
DAV:   4    -0.138852599206E+03   -0.21202E-05   -0.48070E-05  3440   0.599E-02    0.310E-02
DAV:   5    -0.138852591532E+03    0.76737E-05   -0.28103E-05  2944   0.425E-02
  58 F= -.15247164E+03 E0= -.15242930E+03  d E =-.223983E-03
       N       E                     dE             d eps       ncg     rms          rms(c)
DAV:   1    -0.138838802144E+03    0.13797E-01   -0.31609E-01  7192   0.805E+00    0.356E-01
DAV:   2    -0.138853349628E+03   -0.14547E-01   -0.14877E-01  5232   0.893E-01    0.178E-01
DAV:   3    -0.138853841812E+03   -0.49218E-03   -0.48112E-03  5916   0.353E-01    0.156E-01
DAV:   4    -0.138853721505E+03    0.12031E-03   -0.13832E-03  5976   0.288E-01    0.132E-01
DAV:   5    -0.138853645983E+03    0.75522E-04   -0.25887E-04  4116   0.141E-01    0.996E-02
DAV:   6    -0.138853652561E+03   -0.65780E-05   -0.55601E-05  4780   0.518E-02
  59 F= -.15247176E+03 E0= -.15242944E+03  d E =-.122251E-03
       N       E                     dE             d eps       ncg     rms          rms(c)
DAV:   1    -0.138721430744E+03    0.13222E+00   -0.28337E+00  7136   0.242E+01    0.110E+00
DAV:   2    -0.138853339066E+03   -0.13191E+00   -0.13455E+00  5288   0.268E+00    0.530E-01
DAV:   3    -0.138856777607E+03   -0.34385E-02   -0.40730E-02  7596   0.812E-01    0.410E-01
DAV:   4    -0.138857140898E+03   -0.36329E-03   -0.74709E-03  5976   0.658E-01    0.419E-01
DAV:   5    -0.138856228244E+03    0.91265E-03   -0.30451E-03  5524   0.461E-01    0.320E-01
DAV:   6    -0.138856185368E+03    0.42876E-04   -0.33501E-04  6300   0.163E-01    0.270E-01
DAV:   7    -0.138856239164E+03   -0.53795E-04   -0.24136E-04  5348   0.168E-01    0.129E-01
DAV:   8    -0.138856277071E+03   -0.37907E-04   -0.25945E-04  7504   0.119E-01    0.354E-02
DAV:   9    -0.138856291440E+03   -0.14369E-04   -0.80630E-05  5436   0.411E-02    0.271E-02
DAV:  10    -0.138856294315E+03   -0.28754E-05   -0.12233E-05  3048   0.187E-02
  60 F= -.15247159E+03 E0= -.15242929E+03  d E =0.471054E-04
       N       E                     dE             d eps       ncg     rms          rms(c)
DAV:   1    -0.138812174133E+03    0.44117E-01   -0.90509E-01  7280   0.136E+01    0.639E-01
DAV:   2    -0.138853928081E+03   -0.41754E-01   -0.42748E-01  5296   0.152E+00    0.285E-01
DAV:   3    -0.138855759816E+03   -0.18317E-02   -0.15651E-02  7028   0.683E-01    0.295E-01
DAV:   4    -0.138855051210E+03    0.70861E-03   -0.51436E-03  6092   0.567E-01    0.209E-01
DAV:   5    -0.138854876169E+03    0.17504E-03   -0.74649E-04  6836   0.233E-01    0.159E-01
DAV:   6    -0.138854877661E+03   -0.14917E-05   -0.13953E-04  5252   0.788E-02    0.135E-01
DAV:   7    -0.138854910182E+03   -0.32521E-04   -0.42204E-05  4544   0.573E-02    0.893E-02
DAV:   8    -0.138854936538E+03   -0.26357E-04   -0.53064E-05  5068   0.659E-02    0.381E-02
DAV:   9    -0.138854952775E+03   -0.16237E-04   -0.26078E-05  3568   0.460E-02    0.168E-02
DAV:  10    -0.138854956071E+03   -0.32952E-05   -0.19193E-05  3360   0.182E-02
  61 F= -.15247184E+03 E0= -.15242953E+03  d E =-.200794E-03
       N       E                     dE             d eps       ncg     rms          rms(c)
DAV:   1    -0.138836646154E+03    0.18307E-01   -0.41602E-01  7000   0.904E+00    0.414E-01
DAV:   2    -0.138855182602E+03   -0.18536E-01   -0.18983E-01  5228   0.996E-01    0.180E-01
DAV:   3    -0.138855732145E+03   -0.54954E-03   -0.57555E-03  7176   0.293E-01    0.140E-01
DAV:   4    -0.138855723292E+03    0.88527E-05   -0.93123E-04  5964   0.219E-01    0.135E-01
DAV:   5    -0.138855654601E+03    0.68691E-04   -0.32860E-04  4132   0.152E-01    0.111E-01
DAV:   6    -0.138855648665E+03    0.59356E-05   -0.48656E-05  3708   0.644E-02
  62 F= -.15247189E+03 E0= -.15242960E+03  d E =-.506101E-04
       N       E                     dE             d eps       ncg     rms          rms(c)
DAV:   1    -0.138850016931E+03    0.56377E-02   -0.13548E-01  6956   0.518E+00    0.202E-01
DAV:   2    -0.138856007922E+03   -0.59910E-02   -0.60190E-02  5216   0.594E-01    0.158E-01
DAV:   3    -0.138856898144E+03   -0.89022E-03   -0.61447E-03  5588   0.611E-01    0.237E-01
DAV:   4    -0.138856035766E+03    0.86238E-03   -0.33062E-03  6224   0.467E-01    0.945E-02
DAV:   5    -0.138856028434E+03    0.73317E-05   -0.12327E-04  4568   0.902E-02    0.719E-02
DAV:   6    -0.138856034846E+03   -0.64119E-05   -0.45634E-05  4844   0.381E-02
  63 F= -.15247191E+03 E0= -.15242962E+03  d E =-.734622E-04
