unknown system                          
           1
     7.529542    0.000000    0.000000
     3.764771    6.520775    0.000000
     0.000000    0.000000   26.207423
   Cu   C 
  36   2
Direct configuration=     1
   0.00000000  0.00000000  0.00000000
   0.00000000  0.33333333  0.00000000
   0.00000000  0.66666667  0.00000000
   0.33333333  0.00000000  0.00000000
   0.33333333  0.33333333  0.00000000
   0.33333333  0.66666667  0.00000000
   0.66666667  0.00000000  0.00000000
   0.66666667  0.33333333  0.00000000
   0.66666667  0.66666667  0.00000000
   0.11111111  0.11111111  0.07819471
   0.11111111  0.44444444  0.07819471
   0.11111111  0.77777778  0.07819471
   0.44444444  0.11111111  0.07819471
   0.44444444  0.44444444  0.07819471
   0.44444444  0.77777778  0.07819471
   0.77777778  0.11111111  0.07819471
   0.77777778  0.44444444  0.07819471
   0.77777778  0.77777778  0.07819471
   0.22156672  0.22156672  0.15698183
   0.22219376  0.55556979  0.15663707
   0.22156672  0.89019990  0.15698183
   0.55556979  0.22219376  0.15663707
   0.55556979  0.55556979  0.15663707
   0.55498583  0.88917375  0.15640686
   0.89019990  0.22156672  0.15698183
   0.88917375  0.55498583  0.15640686
   0.88917375  0.88917375  0.15640686
   0.99499124  0.99499124  0.23819225
   0.99499124  0.34335085  0.23819225
   0.99922840  0.66705247  0.23489935
   0.34335085  0.99499124  0.23819225
   0.33432735  0.33432735  0.23600336
   0.33432735  0.66467863  0.23600336
   0.66705247  0.99922840  0.23489935
   0.66467863  0.33432735  0.23600336
   0.66705247  0.66705247  0.23489935
   0.11111111  0.11111111  0.27869515
   0.49950299  0.33432735  0.32773892
Direct configuration=     2
   0.00000000  0.00000000  0.00000000
   0.00000000  0.33333333  0.00000000
   0.00000000  0.66666667  0.00000000
   0.33333333  0.00000000  0.00000000
   0.33333333  0.33333333  0.00000000
   0.33333333  0.66666667  0.00000000
   0.66666667  0.00000000  0.00000000
   0.66666667  0.33333333  0.00000000
   0.66666667  0.66666667  0.00000000
   0.11111111  0.11111111  0.07819471
   0.11111111  0.44444444  0.07819471
   0.11111111  0.77777778  0.07819471
   0.44444444  0.11111111  0.07819471
   0.44444444  0.44444444  0.07819471
   0.44444444  0.77777778  0.07819471
   0.77777778  0.11111111  0.07819471
   0.77777778  0.44444444  0.07819471
   0.77777778  0.77777778  0.07819471
   0.22178920  0.22190762  0.15704875
   0.22246569  0.55525733  0.15657786
   0.22174993  0.88983347  0.15704789
   0.55536815  0.22259703  0.15647040
   0.55561031  0.55525733  0.15657786
   0.55505824  0.88920166  0.15644367
   0.88963651  0.22190762  0.15704875
   0.88909232  0.55514869  0.15646035
   0.88907343  0.88920166  0.15644367
   0.99545174  0.99505834  0.23825787
   0.99521975  0.34289384  0.23821831
   0.99914178  0.66700535  0.23496964
   0.34282326  0.99505834  0.23825787
   0.33645792  0.33417058  0.23789232
   0.33462588  0.66408157  0.23658695
   0.66685291  0.99962752  0.23546126
   0.66270484  0.33417058  0.23789232
   0.66718620  0.66700535  0.23496964
   0.11089040  0.11155254  0.27858172
   0.49941786  0.33449761  0.32284222
Direct configuration=     3
   0.00000000  0.00000000  0.00000000
   0.00000000  0.33333333  0.00000000
   0.00000000  0.66666667  0.00000000
   0.33333333  0.00000000  0.00000000
   0.33333333  0.33333333  0.00000000
   0.33333333  0.66666667  0.00000000
   0.66666667  0.00000000  0.00000000
   0.66666667  0.33333333  0.00000000
   0.66666667  0.66666667  0.00000000
   0.11111111  0.11111111  0.07819471
   0.11111111  0.44444444  0.07819471
   0.11111111  0.77777778  0.07819471
   0.44444444  0.11111111  0.07819471
   0.44444444  0.44444444  0.07819471
   0.44444444  0.77777778  0.07819471
   0.77777778  0.11111111  0.07819471
   0.77777778  0.44444444  0.07819471
   0.77777778  0.77777778  0.07819471
   0.22245663  0.22293034  0.15724953
   0.22328147  0.55431997  0.15640021
   0.22229958  0.88873418  0.15724607
   0.55476326  0.22380681  0.15597036
   0.55573189  0.55431997  0.15640021
   0.55527548  0.88928540  0.15655411
   0.88794636  0.22293034  0.15724953
   0.88884804  0.55563726  0.15662083
   0.88877246  0.88928540  0.15655411
   0.99683322  0.99525961  0.23845472
   0.99590525  0.34152283  0.23829647
   0.99888193  0.66686402  0.23518049
   0.34124050  0.99525961  0.23845472
   0.34284962  0.33370026  0.24355921
   0.33552148  0.66229038  0.23833769
   0.66625424  0.00082486  0.23714698
   0.65678346  0.33370026  0.24355921
   0.66758739  0.66686402  0.23518049
   0.11022825  0.11287683  0.27824143
   0.49916247  0.33500839  0.30815212
Direct configuration=     4
   0.00000000  0.00000000  0.00000000
   0.00000000  0.33333333  0.00000000
   0.00000000  0.66666667  0.00000000
   0.33333333  0.00000000  0.00000000
   0.33333333  0.33333333  0.00000000
   0.33333333  0.66666667  0.00000000
   0.66666667  0.00000000  0.00000000
   0.66666667  0.33333333  0.00000000
   0.66666667  0.66666667  0.00000000
   0.11111111  0.11111111  0.07819471
   0.11111111  0.44444444  0.07819471
   0.11111111  0.77777778  0.07819471
   0.44444444  0.11111111  0.07819471
   0.44444444  0.44444444  0.07819471
   0.44444444  0.77777778  0.07819471
   0.77777778  0.11111111  0.07819471
   0.77777778  0.44444444  0.07819471
   0.77777778  0.77777778  0.07819471
   0.22379150  0.22497577  0.15765107
   0.22491304  0.55244524  0.15604492
   0.22339886  0.88653560  0.15764242
   0.55355347  0.22622639  0.15497030
   0.55597505  0.55244524  0.15604492
   0.55570996  0.88945286  0.15677499
   0.88456606  0.22497577  0.15765107
   0.88835947  0.55661440  0.15694180
   0.88817051  0.88945286  0.15677499
   0.99959618  0.99566217  0.23884841
   0.99727626  0.33878081  0.23845280
   0.99836222  0.66658134  0.23560220
   0.33807499  0.99566217  0.23884841
   0.35563302  0.33275962  0.25489298
   0.33731267  0.65870799  0.24183919
   0.66505689  0.00321955  0.24051841
   0.64494069  0.33275962  0.25489298
   0.66838977  0.66658134  0.23560220
   0.10890396  0.11552541  0.27756084
   0.49865169  0.33602995  0.27877194
Direct configuration=     5
   0.00000000  0.00000000  0.00000000
   0.00000000  0.33333333  0.00000000
   0.00000000  0.66666667  0.00000000
   0.33333333  0.00000000  0.00000000
   0.33333333  0.33333333  0.00000000
   0.33333333  0.66666667  0.00000000
   0.66666667  0.00000000  0.00000000
   0.66666667  0.33333333  0.00000000
   0.66666667  0.66666667  0.00000000
   0.11111111  0.11111111  0.07819471
   0.11111111  0.44444444  0.07819471
   0.11111111  0.77777778  0.07819471
   0.44444444  0.11111111  0.07819471
   0.44444444  0.44444444  0.07819471
   0.44444444  0.77777778  0.07819471
   0.77777778  0.11111111  0.07819471
   0.77777778  0.44444444  0.07819471
   0.77777778  0.77777778  0.07819471
   0.22252678  0.22303783  0.15727063
   0.22336722  0.55422145  0.15638154
   0.22235735  0.88861864  0.15726690
   0.55469968  0.22393396  0.15591781
   0.55574467  0.55422145  0.15638154
   0.55529831  0.88929420  0.15656572
   0.88776873  0.22303783  0.15727063
   0.88882236  0.55568861  0.15663770
   0.88874082  0.88929420  0.15656572
   0.99697841  0.99528077  0.23847540
   0.99597730  0.34137874  0.23830469
   0.99885462  0.66684916  0.23520265
   0.34107415  0.99528077  0.23847540
   0.34352140  0.33365083  0.24415481
   0.33561561  0.66210212  0.23852170
   0.66619131  0.00095071  0.23732415
   0.65616110  0.33365083  0.24415481
   0.66762955  0.66684916  0.23520265
   0.11015866  0.11301602  0.27820566
   0.49913563  0.33506207  0.30660816
Direct configuration=     6
   0.00000000  0.00000000  0.00000000
   0.00000000  0.33333333  0.00000000
   0.00000000  0.66666667  0.00000000
   0.33333333  0.00000000  0.00000000
   0.33333333  0.33333333  0.00000000
   0.33333333  0.66666667  0.00000000
   0.66666667  0.00000000  0.00000000
   0.66666667  0.33333333  0.00000000
   0.66666667  0.66666667  0.00000000
   0.11111111  0.11111111  0.07819471
   0.11111111  0.44444444  0.07819471
   0.11111111  0.77777778  0.07819471
   0.44444444  0.11111111  0.07819471
   0.44444444  0.44444444  0.07819471
   0.44444444  0.77777778  0.07819471
   0.77777778  0.11111111  0.07819471
   0.77777778  0.44444444  0.07819471
   0.77777778  0.77777778  0.07819471
   0.22313033  0.22300901  0.15767047
   0.22400635  0.55404050  0.15751454
   0.22244634  0.88844066  0.15725712
   0.55488900  0.22355533  0.15732457
   0.55528648  0.55404050  0.15751454
   0.55559690  0.88982832  0.15678141
   0.88719399  0.22300901  0.15767047
   0.88883631  0.55566071  0.15653042
   0.88790812  0.88982832  0.15678141
   0.99255799  0.99229522  0.23755329
   0.99162466  0.35008402  0.23713898
   0.00022531  0.66609100  0.23562228
   0.34848012  0.99229522  0.23755329
   0.33162988  0.33373197  0.24256285
   0.33453672  0.66425989  0.23819022
   0.66780390 -0.00227447  0.23700384
   0.66797148  0.33373197  0.24256285
   0.66701702  0.66609100  0.23562228
   0.11073181  0.11186972  0.28298704
   0.49874961  0.33583412  0.31030502
Direct configuration=     7
   0.00000000  0.00000000  0.00000000
   0.00000000  0.33333333  0.00000000
   0.00000000  0.66666667  0.00000000
   0.33333333  0.00000000  0.00000000
   0.33333333  0.33333333  0.00000000
   0.33333333  0.66666667  0.00000000
   0.66666667  0.00000000  0.00000000
   0.66666667  0.33333333  0.00000000
   0.66666667  0.66666667  0.00000000
   0.11111111  0.11111111  0.07819471
   0.11111111  0.44444444  0.07819471
   0.11111111  0.77777778  0.07819471
   0.44444444  0.11111111  0.07819471
   0.44444444  0.44444444  0.07819471
   0.44444444  0.77777778  0.07819471
   0.77777778  0.11111111  0.07819471
   0.77777778  0.44444444  0.07819471
   0.77777778  0.77777778  0.07819471
   0.22279333  0.22302510  0.15744721
   0.22364948  0.55414154  0.15688191
   0.22239665  0.88854004  0.15726258
   0.55478329  0.22376675  0.15653908
   0.55554232  0.55414154  0.15688191
   0.55543018  0.88953008  0.15666098
   0.88751491  0.22302510  0.15744721
   0.88882852  0.55567629  0.15659032
   0.88837307  0.88953008  0.15666098
   0.99502622  0.99396226  0.23806817
   0.99405504  0.34522325  0.23778988
  -0.00054004  0.66651434  0.23538797
   0.34434485  0.99396226  0.23806817
   0.33826975  0.33368666  0.24345176
   0.33513914  0.66305506  0.23837531
   0.66690348 -0.00047363  0.23718269
   0.66137692  0.33368666  0.24345176
   0.66735904  0.66651434  0.23538797
   0.11041178  0.11250978  0.28031726
   0.49896515  0.33540303  0.30824080
Direct configuration=     8
   0.00000000  0.00000000  0.00000000
   0.00000000  0.33333333  0.00000000
   0.00000000  0.66666667  0.00000000
   0.33333333  0.00000000  0.00000000
   0.33333333  0.33333333  0.00000000
   0.33333333  0.66666667  0.00000000
   0.66666667  0.00000000  0.00000000
   0.66666667  0.33333333  0.00000000
   0.66666667  0.66666667  0.00000000
   0.11111111  0.11111111  0.07819471
   0.11111111  0.44444444  0.07819471
   0.11111111  0.77777778  0.07819471
   0.44444444  0.11111111  0.07819471
   0.44444444  0.44444444  0.07819471
   0.44444444  0.77777778  0.07819471
   0.77777778  0.11111111  0.07819471
   0.77777778  0.44444444  0.07819471
   0.77777778  0.77777778  0.07819471
   0.22268058  0.22303048  0.15737252
   0.22353009  0.55417534  0.15667026
   0.22238002  0.88857329  0.15726441
   0.55474793  0.22383748  0.15627630
   0.55562791  0.55417534  0.15667026
   0.55537440  0.88943031  0.15662068
   0.88762227  0.22303048  0.15737252
   0.88882592  0.55568150  0.15661036
   0.88852862  0.88943031  0.15662068
   0.99585196  0.99451996  0.23824042
   0.99486811  0.34359711  0.23800763
  -0.00079609  0.66665596  0.23530959
   0.34296142  0.99451996  0.23824042
   0.34049108  0.33367151  0.24374913
   0.33534067  0.66265198  0.23843723
   0.66660225  0.00012883  0.23724252
   0.65917075  0.33367151  0.24374913
   0.66747346  0.66665596  0.23530959
   0.11030471  0.11272390  0.27942410
   0.49903726  0.33525881  0.30755023
Direct configuration=     9
   0.00000000  0.00000000  0.00000000
   0.00000000  0.33333333  0.00000000
   0.00000000  0.66666667  0.00000000
   0.33333333  0.00000000  0.00000000
   0.33333333  0.33333333  0.00000000
   0.33333333  0.66666667  0.00000000
   0.66666667  0.00000000  0.00000000
   0.66666667  0.33333333  0.00000000
   0.66666667  0.66666667  0.00000000
   0.11111111  0.11111111  0.07819471
   0.11111111  0.44444444  0.07819471
   0.11111111  0.77777778  0.07819471
   0.44444444  0.11111111  0.07819471
   0.44444444  0.44444444  0.07819471
   0.44444444  0.77777778  0.07819471
   0.77777778  0.11111111  0.07819471
   0.77777778  0.44444444  0.07819471
   0.77777778  0.77777778  0.07819471
   0.22260368  0.22303416  0.15732157
   0.22344865  0.55419839  0.15652590
   0.22236868  0.88859597  0.15726565
   0.55472381  0.22388572  0.15609705
   0.55568629  0.55419839  0.15652590
   0.55533636  0.88936225  0.15659320
   0.88769550  0.22303416  0.15732157
   0.88882414  0.55568505  0.15662403
   0.88863472  0.88936225  0.15659320
   0.99641519  0.99490037  0.23835791
   0.99542271  0.34248792  0.23815616
  -0.00097073  0.66675256  0.23525612
   0.34201778  0.99490037  0.23835791
   0.34200624  0.33366117  0.24395197
   0.33547814  0.66237705  0.23847946
   0.66639678  0.00053977  0.23728334
   0.65766593  0.33366117  0.24395197
   0.66755151  0.66675256  0.23525612
   0.11023169  0.11286996  0.27881488
   0.49908645  0.33516044  0.30707920
Direct configuration=    10
   0.00000000  0.00000000  0.00000000
   0.00000000  0.33333333  0.00000000
   0.00000000  0.66666667  0.00000000
   0.33333333  0.00000000  0.00000000
   0.33333333  0.33333333  0.00000000
   0.33333333  0.66666667  0.00000000
   0.66666667  0.00000000  0.00000000
   0.66666667  0.33333333  0.00000000
   0.66666667  0.66666667  0.00000000
   0.11111111  0.11111111  0.07819471
   0.11111111  0.44444444  0.07819471
   0.11111111  0.77777778  0.07819471
   0.44444444  0.11111111  0.07819471
   0.44444444  0.44444444  0.07819471
   0.44444444  0.77777778  0.07819471
   0.77777778  0.11111111  0.07819471
   0.77777778  0.44444444  0.07819471
   0.77777778  0.77777778  0.07819471
   0.22256523  0.22303599  0.15729610
   0.22340793  0.55420992  0.15645372
   0.22236301  0.88860730  0.15726627
   0.55471175  0.22390984  0.15600743
   0.55571548  0.55420992  0.15645372
   0.55531734  0.88932822  0.15657946
   0.88773211  0.22303599  0.15729610
   0.88882325  0.55568683  0.15663087
   0.88868777  0.88932822  0.15657946
   0.99669680  0.99509057  0.23841666
   0.99570000  0.34193333  0.23823043
  -0.00105806  0.66680086  0.23522939
   0.34154597  0.99509057  0.23841666
   0.34276382  0.33365600  0.24405339
   0.33554687  0.66223958  0.23850058
   0.66629405  0.00074524  0.23730374
   0.65691352  0.33365600  0.24405339
   0.66759053  0.66680086  0.23522939
   0.11019517  0.11294299  0.27851027
   0.49911104  0.33511126  0.30684368
Direct configuration=    11
   0.00000000  0.00000000  0.00000000
   0.00000000  0.33333333  0.00000000
   0.00000000  0.66666667  0.00000000
   0.33333333  0.00000000  0.00000000
   0.33333333  0.33333333  0.00000000
   0.33333333  0.66666667  0.00000000
   0.66666667  0.00000000  0.00000000
   0.66666667  0.33333333  0.00000000
   0.66666667  0.66666667  0.00000000
   0.11111111  0.11111111  0.07819471
   0.11111111  0.44444444  0.07819471
   0.11111111  0.77777778  0.07819471
   0.44444444  0.11111111  0.07819471
   0.44444444  0.44444444  0.07819471
   0.44444444  0.77777778  0.07819471
   0.77777778  0.11111111  0.07819471
   0.77777778  0.44444444  0.07819471
   0.77777778  0.77777778  0.07819471
   0.22254600  0.22303691  0.15728336
   0.22338757  0.55421568  0.15641763
   0.22236018  0.88861297  0.15726658
   0.55470572  0.22392190  0.15596262
   0.55573008  0.55421568  0.15641763
   0.55530783  0.88931121  0.15657259
   0.88775042  0.22303691  0.15728336
   0.88882281  0.55568772  0.15663428
   0.88871430  0.88931121  0.15657259
   0.99683761  0.99518567  0.23844603
   0.99583865  0.34165603  0.23826756
  -0.00110172  0.66682501  0.23521602
   0.34131006  0.99518567  0.23844603
   0.34314261  0.33365341  0.24410410
   0.33558124  0.66217085  0.23851114
   0.66624268  0.00084797  0.23731395
   0.65653731  0.33365341  0.24410410
   0.66761004  0.66682501  0.23521602
   0.11017692  0.11297950  0.27835797
   0.49912333  0.33508666  0.30672592
Direct configuration=    12
   0.00000000  0.00000000  0.00000000
   0.00000000  0.33333333  0.00000000
   0.00000000  0.66666667  0.00000000
   0.33333333  0.00000000  0.00000000
   0.33333333  0.33333333  0.00000000
   0.33333333  0.66666667  0.00000000
   0.66666667  0.00000000  0.00000000
   0.66666667  0.33333333  0.00000000
   0.66666667  0.66666667  0.00000000
   0.11111111  0.11111111  0.07819471
   0.11111111  0.44444444  0.07819471
   0.11111111  0.77777778  0.07819471
   0.44444444  0.11111111  0.07819471
   0.44444444  0.44444444  0.07819471
   0.44444444  0.77777778  0.07819471
   0.77777778  0.11111111  0.07819471
   0.77777778  0.44444444  0.07819471
   0.77777778  0.77777778  0.07819471
   0.22253639  0.22303737  0.15727700
   0.22337740  0.55421857  0.15639959
   0.22235876  0.88861581  0.15726674
   0.55470270  0.22392793  0.15594022
   0.55573737  0.55421857  0.15639959
   0.55530307  0.88930270  0.15656915
   0.88775957  0.22303737  0.15727700
   0.88882258  0.55568816  0.15663599
   0.88872756  0.88930270  0.15656915
   0.99690801  0.99523322  0.23846072
   0.99590797  0.34151738  0.23828612
  -0.00112355  0.66683709  0.23520934
   0.34119210  0.99523322  0.23846072
   0.34333201  0.33365212  0.24412946
   0.33559842  0.66213649  0.23851642
   0.66621700  0.00089934  0.23731905
   0.65634921  0.33365212  0.24412946
   0.66761980  0.66683709  0.23520934
   0.11016779  0.11299776  0.27828181
   0.49912948  0.33507437  0.30666704
Direct configuration=    13
   0.00000000  0.00000000  0.00000000
   0.00000000  0.33333333  0.00000000
   0.00000000  0.66666667  0.00000000
   0.33333333  0.00000000  0.00000000
   0.33333333  0.33333333  0.00000000
   0.33333333  0.66666667  0.00000000
   0.66666667  0.00000000  0.00000000
   0.66666667  0.33333333  0.00000000
   0.66666667  0.66666667  0.00000000
   0.11111111  0.11111111  0.07819471
   0.11111111  0.44444444  0.07819471
   0.11111111  0.77777778  0.07819471
   0.44444444  0.11111111  0.07819471
   0.44444444  0.44444444  0.07819471
   0.44444444  0.77777778  0.07819471
   0.77777778  0.11111111  0.07819471
   0.77777778  0.44444444  0.07819471
   0.77777778  0.77777778  0.07819471
   0.22277366  0.22308485  0.15762657
   0.22373155  0.55403766  0.15716376
   0.22234665  0.88864004  0.15734439
   0.55482365  0.22368603  0.15697217
   0.55556412  0.55403766  0.15716376
   0.55538078  0.88968512  0.15677823
   0.88747482  0.22308485  0.15762657
   0.88889764  0.55553806  0.15664124
   0.88826743  0.88968512  0.15677823
   0.99450754  0.99352030  0.23789017
   0.99336644  0.34660046  0.23753672
  -0.00016600  0.66626244  0.23537749
   0.34530549  0.99352030  0.23789017
   0.33642919  0.33344158  0.24418490
   0.33484399  0.66364534  0.23850592
   0.66720955 -0.00108576  0.23724441
   0.66346257  0.33344158  0.24418490
   0.66723690  0.66626244  0.23537749
   0.11044750  0.11243834  0.28077036
   0.49870152  0.33593030  0.30527262
Direct configuration=    14
   0.00000000  0.00000000  0.00000000
   0.00000000  0.33333333  0.00000000
   0.00000000  0.66666667  0.00000000
   0.33333333  0.00000000  0.00000000
   0.33333333  0.33333333  0.00000000
   0.33333333  0.66666667  0.00000000
   0.66666667  0.00000000  0.00000000
   0.66666667  0.33333333  0.00000000
   0.66666667  0.66666667  0.00000000
   0.11111111  0.11111111  0.07819471
   0.11111111  0.44444444  0.07819471
   0.11111111  0.77777778  0.07819471
   0.44444444  0.11111111  0.07819471
   0.44444444  0.44444444  0.07819471
   0.44444444  0.77777778  0.07819471
   0.77777778  0.11111111  0.07819471
   0.77777778  0.44444444  0.07819471
   0.77777778  0.77777778  0.07819471
   0.22274857  0.22307983  0.15758961
   0.22369411  0.55405678  0.15708297
   0.22234793  0.88863748  0.15733618
   0.55481086  0.22371160  0.15686307
   0.55558244  0.55405678  0.15708297
   0.55537256  0.88964469  0.15675612
   0.88750493  0.22307983  0.15758961
   0.88888970  0.55555393  0.15664068
   0.88831608  0.88964469  0.15675612
   0.99476134  0.99370140  0.23795049
   0.99363515  0.34606304  0.23761595
  -0.00026724  0.66632319  0.23535971
   0.34487059  0.99370140  0.23795049
   0.33715901  0.33346384  0.24417904
   0.33492376  0.66348582  0.23850703
   0.66710461 -0.00087588  0.23725230
   0.66271049  0.33346384  0.24417904
   0.66727738  0.66632319  0.23535971
   0.11041792  0.11249749  0.28050725
   0.49874677  0.33583980  0.30542004
Direct configuration=    15
   0.00000000  0.00000000  0.00000000
   0.00000000  0.33333333  0.00000000
   0.00000000  0.66666667  0.00000000
   0.33333333  0.00000000  0.00000000
   0.33333333  0.33333333  0.00000000
   0.33333333  0.66666667  0.00000000
   0.66666667  0.00000000  0.00000000
   0.66666667  0.33333333  0.00000000
   0.66666667  0.66666667  0.00000000
   0.11111111  0.11111111  0.07819471
   0.11111111  0.44444444  0.07819471
   0.11111111  0.77777778  0.07819471
   0.44444444  0.11111111  0.07819471
   0.44444444  0.44444444  0.07819471
   0.44444444  0.77777778  0.07819471
   0.77777778  0.11111111  0.07819471
   0.77777778  0.44444444  0.07819471
   0.77777778  0.77777778  0.07819471
   0.22270367  0.22310632  0.15778325
   0.22384543  0.55391116  0.15743350
   0.22226458  0.88880418  0.15742002
   0.55480425  0.22372484  0.15741648
   0.55557673  0.55391116  0.15743350
   0.55543406  0.88970545  0.15684000
   0.88752335  0.22310632  0.15778325
   0.88887957  0.55557419  0.15663809
   0.88819383  0.88970545  0.15684000
   0.99536106  0.99422746  0.23805077
   0.99416987  0.34499360  0.23768336
   0.00002888  0.66619141  0.23540005
   0.34374482  0.99422746  0.23805077
   0.33584034  0.33316460  0.24497147
   0.33481514  0.66370305  0.23871343
   0.66727727 -0.00122121  0.23736476
   0.66432840  0.33316460  0.24497147
   0.66711304  0.66619141  0.23540005
   0.11033339  0.11266656  0.28030256
   0.49835154  0.33663026  0.30206068
Direct configuration=    16
   0.00000000  0.00000000  0.00000000
   0.00000000  0.33333333  0.00000000
   0.00000000  0.66666667  0.00000000
   0.33333333  0.00000000  0.00000000
   0.33333333  0.33333333  0.00000000
   0.33333333  0.66666667  0.00000000
   0.66666667  0.00000000  0.00000000
   0.66666667  0.33333333  0.00000000
   0.66666667  0.66666667  0.00000000
   0.11111111  0.11111111  0.07819471
   0.11111111  0.44444444  0.07819471
   0.11111111  0.77777778  0.07819471
   0.44444444  0.11111111  0.07819471
   0.44444444  0.44444444  0.07819471
   0.44444444  0.77777778  0.07819471
   0.77777778  0.11111111  0.07819471
   0.77777778  0.44444444  0.07819471
   0.77777778  0.77777778  0.07819471
   0.22260179  0.22316641  0.15822260
   0.22418880  0.55358075  0.15822885
   0.22207545  0.88918243  0.15761024
   0.55478923  0.22375488  0.15867219
   0.55556379  0.55358075  0.15822885
   0.55557361  0.88984330  0.15703032
   0.88756513  0.22316641  0.15822260
   0.88885658  0.55562017  0.15663219
   0.88791643  0.88984330  0.15703032
   0.99672183  0.99542110  0.23827832
   0.99538315  0.34256703  0.23783629
   0.00070078  0.66589240  0.23549158
   0.34119041  0.99542110  0.23827832
   0.33284825  0.33248561  0.24676952
   0.33456869  0.66419595  0.23918177
   0.66766906 -0.00200478  0.23761994
   0.66799947  0.33248561  0.24676952
   0.66674016  0.66589240  0.23549158
   0.11014157  0.11305020  0.27983812
   0.49745475  0.33842383  0.29443823
Direct configuration=    17
   0.00000000  0.00000000  0.00000000
   0.00000000  0.33333333  0.00000000
   0.00000000  0.66666667  0.00000000
   0.33333333  0.00000000  0.00000000
   0.33333333  0.33333333  0.00000000
   0.33333333  0.66666667  0.00000000
   0.66666667  0.00000000  0.00000000
   0.66666667  0.33333333  0.00000000
   0.66666667  0.66666667  0.00000000
   0.11111111  0.11111111  0.07819471
   0.11111111  0.44444444  0.07819471
   0.11111111  0.77777778  0.07819471
   0.44444444  0.11111111  0.07819471
   0.44444444  0.44444444  0.07819471
   0.44444444  0.77777778  0.07819471
   0.77777778  0.11111111  0.07819471
   0.77777778  0.44444444  0.07819471
   0.77777778  0.77777778  0.07819471
   0.22247553  0.22324926  0.15830962
   0.22450437  0.55329085  0.15845122
   0.22203878  0.88925578  0.15765724
   0.55463113  0.22407107  0.15913301
   0.55553812  0.55329085  0.15845122
   0.55550293  0.88977570  0.15709499
   0.88760854  0.22324926  0.15830962
   0.88882398  0.55568538  0.15665805
   0.88805470  0.88977570  0.15709499
   0.99772682  0.99529123  0.23837195
   0.99580323  0.34172687  0.23792142
   0.00042153  0.66602764  0.23554622
   0.34031529  0.99529123  0.23837195
   0.32681939  0.33186948  0.24614049
   0.33516250  0.66300833  0.23965740
   0.66741390 -0.00149446  0.23791725
   0.67464446  0.33186948  0.24614049
   0.66688416  0.66602764  0.23554622
   0.10993186  0.11346961  0.27942887
   0.49618758  0.34095818  0.29253082
Direct configuration=    18
   0.00000000  0.00000000  0.00000000
   0.00000000  0.33333333  0.00000000
   0.00000000  0.66666667  0.00000000
   0.33333333  0.00000000  0.00000000
   0.33333333  0.33333333  0.00000000
   0.33333333  0.66666667  0.00000000
   0.66666667  0.00000000  0.00000000
   0.66666667  0.33333333  0.00000000
   0.66666667  0.66666667  0.00000000
   0.11111111  0.11111111  0.07819471
   0.11111111  0.44444444  0.07819471
   0.11111111  0.77777778  0.07819471
   0.44444444  0.11111111  0.07819471
   0.44444444  0.44444444  0.07819471
   0.44444444  0.77777778  0.07819471
   0.77777778  0.11111111  0.07819471
   0.77777778  0.44444444  0.07819471
   0.77777778  0.77777778  0.07819471
   0.22219008  0.22343659  0.15850635
   0.22521785  0.55263540  0.15895397
   0.22195586  0.88942162  0.15776352
   0.55427369  0.22478595  0.16017488
   0.55548009  0.55263540  0.15895397
   0.55534314  0.88962286  0.15724121
   0.88770666  0.22343659  0.15850635
   0.88875026  0.55583281  0.15671649
   0.88836733  0.88962286  0.15724121
   0.99999901  0.99499761  0.23858366
   0.99675299  0.33982736  0.23811390
  -0.00020982  0.66633341  0.23566975
   0.33833671  0.99499761  0.23858366
   0.31318866  0.33047645  0.24471830
   0.33650506  0.66032322  0.24073274
   0.66683700 -0.00034067  0.23858944
   0.68966822  0.33047645  0.24471830
   0.66720974  0.66633341  0.23566975
   0.10945773  0.11441786  0.27850358
   0.49332261  0.34668811  0.28821831
Direct configuration=    19
   0.00000000  0.00000000  0.00000000
   0.00000000  0.33333333  0.00000000
   0.00000000  0.66666667  0.00000000
   0.33333333  0.00000000  0.00000000
   0.33333333  0.33333333  0.00000000
   0.33333333  0.66666667  0.00000000
   0.66666667  0.00000000  0.00000000
   0.66666667  0.33333333  0.00000000
   0.66666667  0.66666667  0.00000000
   0.11111111  0.11111111  0.07819471
   0.11111111  0.44444444  0.07819471
   0.11111111  0.77777778  0.07819471
   0.44444444  0.11111111  0.07819471
   0.44444444  0.44444444  0.07819471
   0.44444444  0.77777778  0.07819471
   0.77777778  0.11111111  0.07819471
   0.77777778  0.44444444  0.07819471
   0.77777778  0.77777778  0.07819471
   0.22209473  0.22336713  0.15844132
   0.22543354  0.55254157  0.15904361
   0.22205320  0.88922693  0.15778143
   0.55421225  0.22490883  0.16042522
   0.55535822  0.55254157  0.15904361
   0.55529586  0.88961361  0.15730375
   0.88787148  0.22336713  0.15844132
   0.88870130  0.55593073  0.15672487
   0.88842386  0.88961361  0.15730375
   0.00068318  0.99329793  0.23846278
   0.99610788  0.34111758  0.23788986
  -0.00096921  0.66696145  0.23572286
   0.33935223  0.99329793  0.23846278
   0.31020839  0.33008176  0.24420022
   0.33788213  0.65756907  0.24131292
   0.66609694  0.00113945  0.23892369
   0.69304319  0.33008176  0.24420022
   0.66734110  0.66696145  0.23572286
   0.10935411  0.11462511  0.27871822
   0.49173631  0.34986072  0.28621074
Direct configuration=    20
   0.00000000  0.00000000  0.00000000
   0.00000000  0.33333333  0.00000000
   0.00000000  0.66666667  0.00000000
   0.33333333  0.00000000  0.00000000
   0.33333333  0.33333333  0.00000000
   0.33333333  0.66666667  0.00000000
   0.66666667  0.00000000  0.00000000
   0.66666667  0.33333333  0.00000000
   0.66666667  0.66666667  0.00000000
   0.11111111  0.11111111  0.07819471
   0.11111111  0.44444444  0.07819471
   0.11111111  0.77777778  0.07819471
   0.44444444  0.11111111  0.07819471
   0.44444444  0.44444444  0.07819471
   0.44444444  0.77777778  0.07819471
   0.77777778  0.11111111  0.07819471
   0.77777778  0.44444444  0.07819471
   0.77777778  0.77777778  0.07819471
   0.22180868  0.22315875  0.15824623
   0.22608063  0.55226008  0.15931254
   0.22234525  0.88864284  0.15783517
   0.55402793  0.22527748  0.16117625
   0.55499262  0.55226008  0.15931254
   0.55515404  0.88958585  0.15749138
   0.88836591  0.22315875  0.15824623
   0.88855441  0.55622451  0.15674998
   0.88859344  0.88958585  0.15749138
   0.00273569  0.98819887  0.23810013
   0.99417255  0.34498824  0.23721775
  -0.00324737  0.66884555  0.23588220
   0.34239877  0.98819887  0.23810013
   0.30126757  0.32889766  0.24264596
   0.34201335  0.64930664  0.24305345
   0.66387676  0.00557981  0.23992643
   0.70316810  0.32889766  0.24264596
   0.66773515  0.66884555  0.23588220
   0.10904324  0.11524685  0.27936212
   0.48697739  0.35937855  0.28018802
Direct configuration=    21
   0.00000000  0.00000000  0.00000000
   0.00000000  0.33333333  0.00000000
   0.00000000  0.66666667  0.00000000
   0.33333333  0.00000000  0.00000000
   0.33333333  0.33333333  0.00000000
   0.33333333  0.66666667  0.00000000
   0.66666667  0.00000000  0.00000000
   0.66666667  0.33333333  0.00000000
   0.66666667  0.66666667  0.00000000