  38  38   1   0
  0.3386168E+02  0.7529542E-09  0.7529542E-09  0.2620742E-08  0.5000000E-15
  1.000000000000000E-004
  CAR 
 unknown system                          
     11.68512373    -75.81763248  301     -1.04704190      1.00000000
    -75.818  0.0000E+00  0.0000E+00
    -75.526  0.0000E+00  0.0000E+00
    -75.234  0.0000E+00  0.0000E+00
    -74.943  0.0000E+00  0.0000E+00
    -74.651  0.0000E+00  0.0000E+00
    -74.359  0.0000E+00  0.0000E+00
    -74.068  0.0000E+00  0.0000E+00
    -73.776  0.0000E+00  0.0000E+00
    -73.484  0.0000E+00  0.0000E+00
    -73.193  0.0000E+00  0.0000E+00
    -72.901  0.0000E+00  0.0000E+00
    -72.609  0.0000E+00  0.0000E+00
    -72.318  0.4484E-12  0.1308E-12
    -72.026  0.4702E-03  0.1371E-03
    -71.734  0.2366E+00  0.6915E-01
    -71.442  0.4078E+00  0.1881E+00
    -71.151  0.7794E+00  0.4154E+00
    -70.859  0.2449E+01  0.1130E+01
    -70.567  0.1061E+01  0.1439E+01
    -70.276  0.2667E-02  0.1440E+01
    -69.984  0.2349E-10  0.1440E+01
    -69.692  0.0000E+00  0.1440E+01
    -69.401  0.0000E+00  0.1440E+01
    -69.109  0.0000E+00  0.1440E+01
    -68.817  0.0000E+00  0.1440E+01
    -68.526  0.0000E+00  0.1440E+01
    -68.234  0.0000E+00  0.1440E+01
    -67.942  0.0000E+00  0.1440E+01
    -67.651  0.0000E+00  0.1440E+01
    -67.359  0.0000E+00  0.1440E+01
    -67.067  0.0000E+00  0.1440E+01
    -66.776  0.0000E+00  0.1440E+01
    -66.484  0.0000E+00  0.1440E+01
    -66.192  0.0000E+00  0.1440E+01
    -65.901  0.0000E+00  0.1440E+01
    -65.609  0.0000E+00  0.1440E+01
    -65.317  0.0000E+00  0.1440E+01
    -65.026  0.0000E+00  0.1440E+01
    -64.734  0.0000E+00  0.1440E+01
    -64.442  0.0000E+00  0.1440E+01
    -64.151  0.0000E+00  0.1440E+01
    -63.859  0.0000E+00  0.1440E+01
    -63.567  0.0000E+00  0.1440E+01
    -63.276  0.0000E+00  0.1440E+01
    -62.984  0.0000E+00  0.1440E+01
    -62.692  0.0000E+00  0.1440E+01
    -62.401  0.0000E+00  0.1440E+01
    -62.109  0.0000E+00  0.1440E+01
    -61.817  0.0000E+00  0.1440E+01
    -61.526  0.0000E+00  0.1440E+01
    -61.234  0.0000E+00  0.1440E+01
    -60.942  0.0000E+00  0.1440E+01
    -60.650  0.0000E+00  0.1440E+01
    -60.359  0.0000E+00  0.1440E+01
    -60.067  0.0000E+00  0.1440E+01
    -59.775  0.0000E+00  0.1440E+01
    -59.484  0.0000E+00  0.1440E+01
    -59.192  0.0000E+00  0.1440E+01
    -58.900  0.0000E+00  0.1440E+01
    -58.609  0.0000E+00  0.1440E+01
    -58.317  0.0000E+00  0.1440E+01
    -58.025  0.0000E+00  0.1440E+01
    -57.734  0.0000E+00  0.1440E+01
    -57.442  0.0000E+00  0.1440E+01
    -57.150  0.0000E+00  0.1440E+01
    -56.859  0.0000E+00  0.1440E+01
    -56.567  0.0000E+00  0.1440E+01
    -56.275  0.0000E+00  0.1440E+01
    -55.984  0.0000E+00  0.1440E+01
    -55.692  0.0000E+00  0.1440E+01
    -55.400  0.0000E+00  0.1440E+01
    -55.109  0.0000E+00  0.1440E+01
    -54.817  0.0000E+00  0.1440E+01
    -54.525  0.0000E+00  0.1440E+01
    -54.234  0.0000E+00  0.1440E+01
    -53.942  0.0000E+00  0.1440E+01
    -53.650  0.0000E+00  0.1440E+01
    -53.359  0.0000E+00  0.1440E+01
    -53.067  0.0000E+00  0.1440E+01
    -52.775  0.0000E+00  0.1440E+01
    -52.484  0.0000E+00  0.1440E+01
    -52.192  0.0000E+00  0.1440E+01
    -51.900  0.0000E+00  0.1440E+01
    -51.609  0.0000E+00  0.1440E+01
    -51.317  0.0000E+00  0.1440E+01
    -51.025  0.0000E+00  0.1440E+01
    -50.734  0.0000E+00  0.1440E+01
    -50.442  0.0000E+00  0.1440E+01
    -50.150  0.0000E+00  0.1440E+01
    -49.858  0.0000E+00  0.1440E+01
    -49.567  0.0000E+00  0.1440E+01
    -49.275  0.0000E+00  0.1440E+01
    -48.983  0.0000E+00  0.1440E+01
    -48.692  0.0000E+00  0.1440E+01
    -48.400  0.0000E+00  0.1440E+01
    -48.108  0.0000E+00  0.1440E+01
    -47.817  0.0000E+00  0.1440E+01
    -47.525  0.0000E+00  0.1440E+01
    -47.233  0.0000E+00  0.1440E+01
    -46.942  0.0000E+00  0.1440E+01
    -46.650  0.0000E+00  0.1440E+01
    -46.358  0.0000E+00  0.1440E+01
    -46.067  0.0000E+00  0.1440E+01
    -45.775  0.0000E+00  0.1440E+01
    -45.483  0.0000E+00  0.1440E+01
    -45.192  0.0000E+00  0.1440E+01
    -44.900  0.0000E+00  0.1440E+01
    -44.608  0.0000E+00  0.1440E+01
    -44.317  0.0000E+00  0.1440E+01
    -44.025  0.0000E+00  0.1440E+01
    -43.733  0.0000E+00  0.1440E+01
    -43.442  0.0000E+00  0.1440E+01
    -43.150  0.0000E+00  0.1440E+01
    -42.858  0.0000E+00  0.1440E+01
    -42.567  0.0000E+00  0.1440E+01
    -42.275  0.0000E+00  0.1440E+01
    -41.983  0.0000E+00  0.1440E+01
    -41.692  0.0000E+00  0.1440E+01
    -41.400  0.0000E+00  0.1440E+01
    -41.108  0.0000E+00  0.1440E+01
    -40.817  0.0000E+00  0.1440E+01
    -40.525  0.0000E+00  0.1440E+01
    -40.233  0.0000E+00  0.1440E+01
    -39.942  0.0000E+00  0.1440E+01
    -39.650  0.0000E+00  0.1440E+01
    -39.358  0.0000E+00  0.1440E+01
    -39.066  0.0000E+00  0.1440E+01
    -38.775  0.0000E+00  0.1440E+01
    -38.483  0.0000E+00  0.1440E+01
    -38.191  0.0000E+00  0.1440E+01
    -37.900  0.0000E+00  0.1440E+01
    -37.608  0.0000E+00  0.1440E+01
    -37.316  0.0000E+00  0.1440E+01
    -37.025  0.0000E+00  0.1440E+01
    -36.733  0.0000E+00  0.1440E+01
    -36.441  0.0000E+00  0.1440E+01
    -36.150  0.0000E+00  0.1440E+01
    -35.858  0.0000E+00  0.1440E+01
    -35.566  0.0000E+00  0.1440E+01
    -35.275  0.0000E+00  0.1440E+01
    -34.983  0.0000E+00  0.1440E+01
    -34.691  0.0000E+00  0.1440E+01
    -34.400  0.0000E+00  0.1440E+01
    -34.108  0.0000E+00  0.1440E+01
    -33.816  0.0000E+00  0.1440E+01
    -33.525  0.0000E+00  0.1440E+01
    -33.233  0.0000E+00  0.1440E+01
    -32.941  0.0000E+00  0.1440E+01
    -32.650  0.0000E+00  0.1440E+01
    -32.358  0.0000E+00  0.1440E+01
    -32.066  0.0000E+00  0.1440E+01
    -31.775  0.0000E+00  0.1440E+01
    -31.483  0.0000E+00  0.1440E+01
    -31.191  0.0000E+00  0.1440E+01
    -30.900  0.0000E+00  0.1440E+01
    -30.608  0.0000E+00  0.1440E+01
    -30.316  0.0000E+00  0.1440E+01
    -30.025  0.0000E+00  0.1440E+01
    -29.733  0.0000E+00  0.1440E+01
    -29.441  0.0000E+00  0.1440E+01
    -29.149  0.0000E+00  0.1440E+01
    -28.858  0.0000E+00  0.1440E+01
    -28.566  0.0000E+00  0.1440E+01
    -28.274  0.0000E+00  0.1440E+01
    -27.983  0.0000E+00  0.1440E+01
    -27.691  0.0000E+00  0.1440E+01
    -27.399  0.0000E+00  0.1440E+01
    -27.108  0.0000E+00  0.1440E+01
    -26.816  0.0000E+00  0.1440E+01
    -26.524  0.0000E+00  0.1440E+01
    -26.233  0.0000E+00  0.1440E+01
    -25.941  0.0000E+00  0.1440E+01
    -25.649  0.0000E+00  0.1440E+01
    -25.358  0.0000E+00  0.1440E+01
    -25.066  0.0000E+00  0.1440E+01
    -24.774  0.0000E+00  0.1440E+01
    -24.483  0.0000E+00  0.1440E+01
    -24.191  0.0000E+00  0.1440E+01
    -23.899  0.0000E+00  0.1440E+01
    -23.608  0.0000E+00  0.1440E+01
    -23.316  0.0000E+00  0.1440E+01
    -23.024  0.0000E+00  0.1440E+01
    -22.733  0.0000E+00  0.1440E+01
    -22.441  0.0000E+00  0.1440E+01
    -22.149  0.0000E+00  0.1440E+01
    -21.858  0.0000E+00  0.1440E+01
    -21.566  0.0000E+00  0.1440E+01
    -21.274  0.0000E+00  0.1440E+01
    -20.983  0.0000E+00  0.1440E+01
    -20.691  0.0000E+00  0.1440E+01
    -20.399  0.0000E+00  0.1440E+01
    -20.108  0.0000E+00  0.1440E+01
    -19.816  0.0000E+00  0.1440E+01
    -19.524  0.0000E+00  0.1440E+01
    -19.233  0.0000E+00  0.1440E+01
    -18.941  0.0000E+00  0.1440E+01
    -18.649  0.0000E+00  0.1440E+01
    -18.357  0.0000E+00  0.1440E+01
    -18.066  0.0000E+00  0.1440E+01
    -17.774  0.0000E+00  0.1440E+01
    -17.482  0.0000E+00  0.1440E+01
    -17.191  0.0000E+00  0.1440E+01
    -16.899  0.0000E+00  0.1440E+01
    -16.607  0.0000E+00  0.1440E+01
    -16.316  0.0000E+00  0.1440E+01
    -16.024  0.0000E+00  0.1440E+01
    -15.732  0.0000E+00  0.1440E+01
    -15.441  0.0000E+00  0.1440E+01
    -15.149  0.0000E+00  0.1440E+01
    -14.857  0.0000E+00  0.1440E+01
    -14.566  0.0000E+00  0.1440E+01
    -14.274  0.0000E+00  0.1440E+01
    -13.982  0.0000E+00  0.1440E+01
    -13.691  0.0000E+00  0.1440E+01
    -13.399  0.0000E+00  0.1440E+01
    -13.107  0.0000E+00  0.1440E+01
    -12.816  0.2229E-10  0.1440E+01
    -12.524  0.3429E-03  0.1440E+01
    -12.232  0.3898E-01  0.1451E+01
    -11.941  0.5050E-01  0.1466E+01
    -11.649  0.1599E-02  0.1467E+01
    -11.357  0.8251E-09  0.1467E+01
    -11.066  0.0000E+00  0.1467E+01
    -10.774  0.6344E-17  0.1467E+01
    -10.482  0.2885E-06  0.1467E+01
    -10.191  0.1950E-02  0.1467E+01
     -9.899  0.1685E-01  0.1472E+01
     -9.607  0.7176E-02  0.1474E+01
     -9.316  0.2379E-01  0.1481E+01
     -9.024  0.4532E-02  0.1483E+01
     -8.732  0.2320E-01  0.1489E+01
     -8.441  0.3260E-01  0.1499E+01
     -8.149  0.3446E-01  0.1509E+01
     -7.857  0.1878E-01  0.1514E+01
     -7.565  0.5911E-01  0.1532E+01
     -7.274  0.4161E-01  0.1544E+01
     -6.982  0.3057E-01  0.1553E+01
     -6.690  0.9111E-01  0.1579E+01
     -6.399  0.1069E+00  0.1610E+01
     -6.107  0.1789E+00  0.1663E+01
     -5.815  0.2838E+00  0.1745E+01
     -5.524  0.3117E+00  0.1836E+01
     -5.232  0.5033E+00  0.1983E+01
     -4.940  0.4750E+00  0.2122E+01
     -4.649  0.5129E+00  0.2271E+01
     -4.357  0.5993E+00  0.2446E+01
     -4.065  0.7891E+00  0.2676E+01
     -3.774  0.9468E+00  0.2952E+01
     -3.482  0.6906E+00  0.3154E+01
     -3.190  0.7909E+00  0.3384E+01
     -2.899  0.8210E+00  0.3624E+01
     -2.607  0.9987E+00  0.3915E+01
     -2.315  0.3060E+00  0.4004E+01
     -2.024  0.1235E+00  0.4040E+01
     -1.732  0.9399E-01  0.4068E+01
     -1.440  0.7969E-01  0.4091E+01
     -1.149  0.1038E+00  0.4121E+01
     -0.857  0.9769E-01  0.4150E+01
     -0.565  0.8254E-01  0.4174E+01
     -0.274  0.7559E-01  0.4196E+01
      0.018  0.8757E-01  0.4222E+01
      0.310  0.6286E-01  0.4240E+01
      0.601  0.9994E-01  0.4269E+01
      0.893  0.8435E-01  0.4294E+01
      1.185  0.3214E-01  0.4303E+01
      1.476  0.8701E-01  0.4328E+01
      1.768  0.8486E-01  0.4353E+01
      2.060  0.5067E-01  0.4368E+01
      2.351  0.3940E-01  0.4379E+01
      2.643  0.6894E-01  0.4400E+01
      2.935  0.4514E-01  0.4413E+01
      3.227  0.4343E-01  0.4425E+01
      3.518  0.7162E-01  0.4446E+01
      3.810  0.9545E-01  0.4474E+01
      4.102  0.7061E-01  0.4495E+01
      4.393  0.8025E-01  0.4518E+01
      4.685  0.1174E+00  0.4552E+01
      4.977  0.1103E+00  0.4584E+01
      5.268  0.1209E+00  0.4620E+01
      5.560  0.1362E+00  0.4659E+01
      5.852  0.1236E+00  0.4696E+01
      6.143  0.1327E+00  0.4734E+01
      6.435  0.1388E+00  0.4775E+01
      6.727  0.1516E+00  0.4819E+01
      7.018  0.1341E+00  0.4858E+01
      7.310  0.1417E+00  0.4899E+01
      7.602  0.1481E+00  0.4943E+01
      7.893  0.5961E-01  0.4960E+01
      8.185  0.8296E-04  0.4960E+01
      8.477  0.7837E-13  0.4960E+01
      8.768  0.0000E+00  0.4960E+01
      9.060  0.0000E+00  0.4960E+01
      9.352  0.0000E+00  0.4960E+01
      9.643  0.0000E+00  0.4960E+01
      9.935  0.0000E+00  0.4960E+01
     10.227  0.0000E+00  0.4960E+01
     10.518  0.0000E+00  0.4960E+01
     10.810  0.0000E+00  0.4960E+01
     11.102  0.0000E+00  0.4960E+01
     11.393  0.0000E+00  0.4960E+01
     11.685  0.0000E+00  0.4960E+01
     11.68512373    -75.81763248  301     -1.04704190      1.00000000
    -75.818  0.0000E+00  0.0000E+00  0.0000E+00
    -75.526  0.0000E+00  0.0000E+00  0.0000E+00
    -75.234  0.0000E+00  0.0000E+00  0.0000E+00
    -74.943  0.0000E+00  0.0000E+00  0.0000E+00
    -74.651  0.0000E+00  0.0000E+00  0.0000E+00
    -74.359  0.0000E+00  0.0000E+00  0.0000E+00
    -74.068  0.0000E+00  0.0000E+00  0.0000E+00
    -73.776  0.0000E+00  0.0000E+00  0.0000E+00
    -73.484  0.0000E+00  0.0000E+00  0.0000E+00
    -73.193  0.0000E+00  0.0000E+00  0.0000E+00
    -72.901  0.0000E+00  0.0000E+00  0.0000E+00
    -72.609  0.0000E+00  0.0000E+00  0.0000E+00
    -72.318  0.3527E-21  0.5273E-19  0.5735E-19
    -72.026  0.5755E-12  0.7237E-10  0.5476E-10
    -71.734  0.3240E-09  0.4589E-07  0.2399E-07
    -71.442  0.9017E-09  0.1286E-05  0.3708E-07
    -71.151  0.5412E-05  0.2835E-01  0.9421E-05
    -70.859  0.2185E-04  0.8601E+01  0.4636E-04
    -70.567  0.1977E-04  0.1187E+02  0.2582E-04
    -70.276  0.1523E-07  0.7538E-02  0.4690E-08
    -69.984  0.2537E-17  0.1168E-11  0.6122E-17
    -69.692  0.0000E+00  0.0000E+00  0.0000E+00
    -69.401  0.0000E+00  0.0000E+00  0.0000E+00
    -69.109  0.0000E+00  0.0000E+00  0.0000E+00
    -68.817  0.0000E+00  0.0000E+00  0.0000E+00
    -68.526  0.0000E+00  0.0000E+00  0.0000E+00
    -68.234  0.0000E+00  0.0000E+00  0.0000E+00
    -67.942  0.0000E+00  0.0000E+00  0.0000E+00
    -67.651  0.0000E+00  0.0000E+00  0.0000E+00
    -67.359  0.0000E+00  0.0000E+00  0.0000E+00
    -67.067  0.0000E+00  0.0000E+00  0.0000E+00
    -66.776  0.0000E+00  0.0000E+00  0.0000E+00
    -66.484  0.0000E+00  0.0000E+00  0.0000E+00
    -66.192  0.0000E+00  0.0000E+00  0.0000E+00
    -65.901  0.0000E+00  0.0000E+00  0.0000E+00
    -65.609  0.0000E+00  0.0000E+00  0.0000E+00
    -65.317  0.0000E+00  0.0000E+00  0.0000E+00
    -65.026  0.0000E+00  0.0000E+00  0.0000E+00
    -64.734  0.0000E+00  0.0000E+00  0.0000E+00
    -64.442  0.0000E+00  0.0000E+00  0.0000E+00
    -64.151  0.0000E+00  0.0000E+00  0.0000E+00
    -63.859  0.0000E+00  0.0000E+00  0.0000E+00
    -63.567  0.0000E+00  0.0000E+00  0.0000E+00
    -63.276  0.0000E+00  0.0000E+00  0.0000E+00
    -62.984  0.0000E+00  0.0000E+00  0.0000E+00
    -62.692  0.0000E+00  0.0000E+00  0.0000E+00
    -62.401  0.0000E+00  0.0000E+00  0.0000E+00
    -62.109  0.0000E+00  0.0000E+00  0.0000E+00
    -61.817  0.0000E+00  0.0000E+00  0.0000E+00
    -61.526  0.0000E+00  0.0000E+00  0.0000E+00
    -61.234  0.0000E+00  0.0000E+00  0.0000E+00
    -60.942  0.0000E+00  0.0000E+00  0.0000E+00
    -60.650  0.0000E+00  0.0000E+00  0.0000E+00
    -60.359  0.0000E+00  0.0000E+00  0.0000E+00
    -60.067  0.0000E+00  0.0000E+00  0.0000E+00
    -59.775  0.0000E+00  0.0000E+00  0.0000E+00
    -59.484  0.0000E+00  0.0000E+00  0.0000E+00
    -59.192  0.0000E+00  0.0000E+00  0.0000E+00
    -58.900  0.0000E+00  0.0000E+00  0.0000E+00
    -58.609  0.0000E+00  0.0000E+00  0.0000E+00
    -58.317  0.0000E+00  0.0000E+00  0.0000E+00
    -58.025  0.0000E+00  0.0000E+00  0.0000E+00
    -57.734  0.0000E+00  0.0000E+00  0.0000E+00
    -57.442  0.0000E+00  0.0000E+00  0.0000E+00
    -57.150  0.0000E+00  0.0000E+00  0.0000E+00
    -56.859  0.0000E+00  0.0000E+00  0.0000E+00
    -56.567  0.0000E+00  0.0000E+00  0.0000E+00
    -56.275  0.0000E+00  0.0000E+00  0.0000E+00
    -55.984  0.0000E+00  0.0000E+00  0.0000E+00
    -55.692  0.0000E+00  0.0000E+00  0.0000E+00
    -55.400  0.0000E+00  0.0000E+00  0.0000E+00
    -55.109  0.0000E+00  0.0000E+00  0.0000E+00
    -54.817  0.0000E+00  0.0000E+00  0.0000E+00
    -54.525  0.0000E+00  0.0000E+00  0.0000E+00
    -54.234  0.0000E+00  0.0000E+00  0.0000E+00
    -53.942  0.0000E+00  0.0000E+00  0.0000E+00
    -53.650  0.0000E+00  0.0000E+00  0.0000E+00
    -53.359  0.0000E+00  0.0000E+00  0.0000E+00
    -53.067  0.0000E+00  0.0000E+00  0.0000E+00
    -52.775  0.0000E+00  0.0000E+00  0.0000E+00
    -52.484  0.0000E+00  0.0000E+00  0.0000E+00
    -52.192  0.0000E+00  0.0000E+00  0.0000E+00
    -51.900  0.0000E+00  0.0000E+00  0.0000E+00
    -51.609  0.0000E+00  0.0000E+00  0.0000E+00
    -51.317  0.0000E+00  0.0000E+00  0.0000E+00
    -51.025  0.0000E+00  0.0000E+00  0.0000E+00
    -50.734  0.0000E+00  0.0000E+00  0.0000E+00
    -50.442  0.0000E+00  0.0000E+00  0.0000E+00
    -50.150  0.0000E+00  0.0000E+00  0.0000E+00
    -49.858  0.0000E+00  0.0000E+00  0.0000E+00
    -49.567  0.0000E+00  0.0000E+00  0.0000E+00
    -49.275  0.0000E+00  0.0000E+00  0.0000E+00
    -48.983  0.0000E+00  0.0000E+00  0.0000E+00
    -48.692  0.0000E+00  0.0000E+00  0.0000E+00
    -48.400  0.0000E+00  0.0000E+00  0.0000E+00
    -48.108  0.0000E+00  0.0000E+00  0.0000E+00
    -47.817  0.0000E+00  0.0000E+00  0.0000E+00
    -47.525  0.0000E+00  0.0000E+00  0.0000E+00
    -47.233  0.0000E+00  0.0000E+00  0.0000E+00
    -46.942  0.0000E+00  0.0000E+00  0.0000E+00
    -46.650  0.0000E+00  0.0000E+00  0.0000E+00
    -46.358  0.0000E+00  0.0000E+00  0.0000E+00
    -46.067  0.0000E+00  0.0000E+00  0.0000E+00
    -45.775  0.0000E+00  0.0000E+00  0.0000E+00
    -45.483  0.0000E+00  0.0000E+00  0.0000E+00
    -45.192  0.0000E+00  0.0000E+00  0.0000E+00
    -44.900  0.0000E+00  0.0000E+00  0.0000E+00
    -44.608  0.0000E+00  0.0000E+00  0.0000E+00
    -44.317  0.0000E+00  0.0000E+00  0.0000E+00
    -44.025  0.0000E+00  0.0000E+00  0.0000E+00
    -43.733  0.0000E+00  0.0000E+00  0.0000E+00
    -43.442  0.0000E+00  0.0000E+00  0.0000E+00
    -43.150  0.0000E+00  0.0000E+00  0.0000E+00
    -42.858  0.0000E+00  0.0000E+00  0.0000E+00
    -42.567  0.0000E+00  0.0000E+00  0.0000E+00
    -42.275  0.0000E+00  0.0000E+00  0.0000E+00
    -41.983  0.0000E+00  0.0000E+00  0.0000E+00
    -41.692  0.0000E+00  0.0000E+00  0.0000E+00
    -41.400  0.0000E+00  0.0000E+00  0.0000E+00
    -41.108  0.0000E+00  0.0000E+00  0.0000E+00
    -40.817  0.0000E+00  0.0000E+00  0.0000E+00
    -40.525  0.0000E+00  0.0000E+00  0.0000E+00
    -40.233  0.0000E+00  0.0000E+00  0.0000E+00
    -39.942  0.0000E+00  0.0000E+00  0.0000E+00
    -39.650  0.0000E+00  0.0000E+00  0.0000E+00
    -39.358  0.0000E+00  0.0000E+00  0.0000E+00
    -39.066  0.0000E+00  0.0000E+00  0.0000E+00
    -38.775  0.0000E+00  0.0000E+00  0.0000E+00
    -38.483  0.0000E+00  0.0000E+00  0.0000E+00
    -38.191  0.0000E+00  0.0000E+00  0.0000E+00
    -37.900  0.0000E+00  0.0000E+00  0.0000E+00
    -37.608  0.0000E+00  0.0000E+00  0.0000E+00
    -37.316  0.0000E+00  0.0000E+00  0.0000E+00
    -37.025  0.0000E+00  0.0000E+00  0.0000E+00
    -36.733  0.0000E+00  0.0000E+00  0.0000E+00
    -36.441  0.0000E+00  0.0000E+00  0.0000E+00
    -36.150  0.0000E+00  0.0000E+00  0.0000E+00
    -35.858  0.0000E+00  0.0000E+00  0.0000E+00
    -35.566  0.0000E+00  0.0000E+00  0.0000E+00
    -35.275  0.0000E+00  0.0000E+00  0.0000E+00
    -34.983  0.0000E+00  0.0000E+00  0.0000E+00
    -34.691  0.0000E+00  0.0000E+00  0.0000E+00
    -34.400  0.0000E+00  0.0000E+00  0.0000E+00
    -34.108  0.0000E+00  0.0000E+00  0.0000E+00
    -33.816  0.0000E+00  0.0000E+00  0.0000E+00
    -33.525  0.0000E+00  0.0000E+00  0.0000E+00
    -33.233  0.0000E+00  0.0000E+00  0.0000E+00
    -32.941  0.0000E+00  0.0000E+00  0.0000E+00
    -32.650  0.0000E+00  0.0000E+00  0.0000E+00
    -32.358  0.0000E+00  0.0000E+00  0.0000E+00
    -32.066  0.0000E+00  0.0000E+00  0.0000E+00
    -31.775  0.0000E+00  0.0000E+00  0.0000E+00
    -31.483  0.0000E+00  0.0000E+00  0.0000E+00
    -31.191  0.0000E+00  0.0000E+00  0.0000E+00
    -30.900  0.0000E+00  0.0000E+00  0.0000E+00
    -30.608  0.0000E+00  0.0000E+00  0.0000E+00
    -30.316  0.0000E+00  0.0000E+00  0.0000E+00
    -30.025  0.0000E+00  0.0000E+00  0.0000E+00
    -29.733  0.0000E+00  0.0000E+00  0.0000E+00
    -29.441  0.0000E+00  0.0000E+00  0.0000E+00
    -29.149  0.0000E+00  0.0000E+00  0.0000E+00
    -28.858  0.0000E+00  0.0000E+00  0.0000E+00
    -28.566  0.0000E+00  0.0000E+00  0.0000E+00
    -28.274  0.0000E+00  0.0000E+00  0.0000E+00
    -27.983  0.0000E+00  0.0000E+00  0.0000E+00
    -27.691  0.0000E+00  0.0000E+00  0.0000E+00
    -27.399  0.0000E+00  0.0000E+00  0.0000E+00
    -27.108  0.0000E+00  0.0000E+00  0.0000E+00
    -26.816  0.0000E+00  0.0000E+00  0.0000E+00
    -26.524  0.0000E+00  0.0000E+00  0.0000E+00
    -26.233  0.0000E+00  0.0000E+00  0.0000E+00
    -25.941  0.0000E+00  0.0000E+00  0.0000E+00
    -25.649  0.0000E+00  0.0000E+00  0.0000E+00
    -25.358  0.0000E+00  0.0000E+00  0.0000E+00
    -25.066  0.0000E+00  0.0000E+00  0.0000E+00
    -24.774  0.0000E+00  0.0000E+00  0.0000E+00
    -24.483  0.0000E+00  0.0000E+00  0.0000E+00
    -24.191  0.0000E+00  0.0000E+00  0.0000E+00
    -23.899  0.0000E+00  0.0000E+00  0.0000E+00
    -23.608  0.0000E+00  0.0000E+00  0.0000E+00
    -23.316  0.0000E+00  0.0000E+00  0.0000E+00
    -23.024  0.0000E+00  0.0000E+00  0.0000E+00
    -22.733  0.0000E+00  0.0000E+00  0.0000E+00
    -22.441  0.0000E+00  0.0000E+00  0.0000E+00
    -22.149  0.0000E+00  0.0000E+00  0.0000E+00
    -21.858  0.0000E+00  0.0000E+00  0.0000E+00
    -21.566  0.0000E+00  0.0000E+00  0.0000E+00
    -21.274  0.0000E+00  0.0000E+00  0.0000E+00
    -20.983  0.0000E+00  0.0000E+00  0.0000E+00
    -20.691  0.0000E+00  0.0000E+00  0.0000E+00
    -20.399  0.0000E+00  0.0000E+00  0.0000E+00
    -20.108  0.0000E+00  0.0000E+00  0.0000E+00
    -19.816  0.0000E+00  0.0000E+00  0.0000E+00
    -19.524  0.0000E+00  0.0000E+00  0.0000E+00
    -19.233  0.0000E+00  0.0000E+00  0.0000E+00
    -18.941  0.0000E+00  0.0000E+00  0.0000E+00
    -18.649  0.0000E+00  0.0000E+00  0.0000E+00
    -18.357  0.0000E+00  0.0000E+00  0.0000E+00
    -18.066  0.0000E+00  0.0000E+00  0.0000E+00
    -17.774  0.0000E+00  0.0000E+00  0.0000E+00
    -17.482  0.0000E+00  0.0000E+00  0.0000E+00
    -17.191  0.0000E+00  0.0000E+00  0.0000E+00
    -16.899  0.0000E+00  0.0000E+00  0.0000E+00
    -16.607  0.0000E+00  0.0000E+00  0.0000E+00
    -16.316  0.0000E+00  0.0000E+00  0.0000E+00
    -16.024  0.0000E+00  0.0000E+00  0.0000E+00
    -15.732  0.0000E+00  0.0000E+00  0.0000E+00
    -15.441  0.0000E+00  0.0000E+00  0.0000E+00
    -15.149  0.0000E+00  0.0000E+00  0.0000E+00
    -14.857  0.0000E+00  0.0000E+00  0.0000E+00
    -14.566  0.0000E+00  0.0000E+00  0.0000E+00
    -14.274  0.0000E+00  0.0000E+00  0.0000E+00
    -13.982  0.0000E+00  0.0000E+00  0.0000E+00
    -13.691  0.0000E+00  0.0000E+00  0.0000E+00
    -13.399  0.0000E+00  0.0000E+00  0.0000E+00
    -13.107  0.0000E+00  0.0000E+00  0.0000E+00
    -12.816  0.1196E-13  0.2216E-14  0.2316E-15
    -12.524  0.1532E-06  0.2971E-07  0.3806E-08
    -12.232  0.9988E-05  0.2155E-05  0.4135E-06
    -11.941  0.2119E-05  0.6191E-06  0.2863E-06
    -11.649  0.8395E-08  0.4355E-08  0.4268E-08
    -11.357  0.1517E-14  0.1060E-14  0.1392E-14
    -11.066  0.0000E+00  0.0000E+00  0.0000E+00
    -10.774  0.5816E-17  0.5095E-18  0.5416E-20
    -10.482  0.2645E-06  0.2317E-07  0.2463E-09
    -10.191  0.1785E-02  0.1575E-03  0.2175E-05
     -9.899  0.1463E-01  0.1553E-02  0.1310E-03
     -9.607  0.5440E-02  0.7801E-03  0.1828E-03
     -9.316  0.1627E-01  0.2737E-02  0.8718E-03
     -9.024  0.6094E-02  0.6704E-03  0.1059E-03
     -8.732  0.2107E-01  0.3322E-02  0.1888E-02
     -8.441  0.4557E-01  0.3776E-02  0.2932E-02
     -8.149  0.1572E-01  0.5572E-02  0.4682E-02
     -7.857  0.2800E-01  0.2833E-02  0.2673E-02
     -7.565  0.5324E-01  0.1042E-01  0.1402E-01
     -7.274  0.5010E-01  0.7701E-02  0.1106E-01
     -6.982  0.3026E-01  0.4951E-02  0.1608E-01
     -6.690  0.6211E-01  0.1526E-01  0.4686E-01
     -6.399  0.4379E-01  0.1669E-01  0.7067E-01
     -6.107  0.8355E-01  0.1910E-01  0.1366E+00
     -5.815  0.8545E-01  0.2708E-01  0.2747E+00
     -5.524  0.8197E-01  0.2842E-01  0.4174E+00
     -5.232  0.7098E-01  0.2708E-01  0.8849E+00
     -4.940  0.2435E-01  0.2459E-01  0.1074E+01
     -4.649  0.1278E-01  0.2596E-01  0.1487E+01
     -4.357  0.1909E-01  0.1995E-01  0.1551E+01
     -4.065  0.2303E-01  0.2916E-01  0.2431E+01
     -3.774  0.3866E-01  0.5475E-01  0.4479E+01
     -3.482  0.2170E-01  0.4359E-01  0.2952E+01
     -3.190  0.2442E-01  0.4809E-01  0.3283E+01
     -2.899  0.2445E-01  0.2584E-01  0.4009E+01
     -2.607  0.2417E-01  0.2181E-01  0.4792E+01
     -2.315  0.1450E-01  0.1509E-01  0.1477E+01
     -2.024  0.3755E-01  0.2140E-01  0.4524E+00
     -1.732  0.3001E-01  0.2480E-01  0.2209E+00
     -1.440  0.1060E-01  0.1826E-01  0.1133E+00
     -1.149  0.2857E-01  0.4489E-01  0.1518E+00
     -0.857  0.3589E-01  0.3926E-01  0.1821E+00
     -0.565  0.3110E-01  0.5538E-01  0.1145E+00
     -0.274  0.1823E-01  0.5133E-01  0.9447E-01
      0.018  0.2784E-01  0.5999E-01  0.8975E-01
      0.310  0.2372E-01  0.3742E-01  0.7942E-01
      0.601  0.2722E-01  0.6678E-01  0.1184E+00
      0.893  0.2604E-01  0.6682E-01  0.8557E-01
      1.185  0.6081E-02  0.2242E-01  0.4217E-01
      1.476  0.1956E-01  0.7593E-01  0.8823E-01
      1.768  0.1747E-01  0.8819E-01  0.6572E-01
      2.060  0.1029E-01  0.3186E-01  0.4017E-01
      2.351  0.4056E-02  0.4359E-01  0.2328E-01
      2.643  0.6478E-02  0.4344E-01  0.4668E-01
      2.935  0.5297E-02  0.3867E-01  0.4349E-01
      3.227  0.6278E-02  0.2917E-01  0.3235E-01
      3.518  0.2039E-01  0.3357E-01  0.4450E-01
      3.810  0.3881E-01  0.3993E-01  0.5411E-01
      4.102  0.2417E-01  0.1462E-01  0.3162E-01
      4.393  0.4356E-01  0.2256E-01  0.3932E-01
      4.685  0.8048E-01  0.6131E-01  0.7857E-01
      4.977  0.7827E-01  0.4163E-01  0.7938E-01
      5.268  0.6852E-01  0.4488E-01  0.7274E-01
      5.560  0.8012E-01  0.7936E-01  0.8514E-01
      5.852  0.3852E-01  0.5481E-01  0.6603E-01
      6.143  0.4584E-01  0.6429E-01  0.5421E-01
      6.435  0.2478E-01  0.8957E-01  0.5133E-01
      6.727  0.4842E-01  0.7787E-01  0.5282E-01
      7.018  0.4595E-01  0.6155E-01  0.3937E-01
      7.310  0.5879E-01  0.5546E-01  0.4452E-01
      7.602  0.3187E-01  0.7922E-01  0.5407E-01
      7.893  0.6185E-02  0.2105E-01  0.2011E-01
      8.185  0.5386E-05  0.1893E-04  0.2695E-04
      8.477  0.4383E-14  0.1745E-13  0.2781E-13
      8.768  0.0000E+00  0.0000E+00  0.0000E+00
      9.060  0.0000E+00  0.0000E+00  0.0000E+00
      9.352  0.0000E+00  0.0000E+00  0.0000E+00
      9.643  0.0000E+00  0.0000E+00  0.0000E+00
      9.935  0.0000E+00  0.0000E+00  0.0000E+00
     10.227  0.0000E+00  0.0000E+00  0.0000E+00
     10.518  0.0000E+00  0.0000E+00  0.0000E+00
     10.810  0.0000E+00  0.0000E+00  0.0000E+00
     11.102  0.0000E+00  0.0000E+00  0.0000E+00
     11.393  0.0000E+00  0.0000E+00  0.0000E+00
     11.685  0.0000E+00  0.0000E+00  0.0000E+00
     11.68512373    -75.81763248  301     -1.04704190      1.00000000
    -75.818  0.0000E+00  0.0000E+00  0.0000E+00
    -75.526  0.0000E+00  0.0000E+00  0.0000E+00
    -75.234  0.0000E+00  0.0000E+00  0.0000E+00
    -74.943  0.0000E+00  0.0000E+00  0.0000E+00
    -74.651  0.0000E+00  0.0000E+00  0.0000E+00
    -74.359  0.0000E+00  0.0000E+00  0.0000E+00
    -74.068  0.0000E+00  0.0000E+00  0.0000E+00
    -73.776  0.0000E+00  0.0000E+00  0.0000E+00
    -73.484  0.0000E+00  0.0000E+00  0.0000E+00
    -73.193  0.0000E+00  0.0000E+00  0.0000E+00
    -72.901  0.0000E+00  0.0000E+00  0.0000E+00
    -72.609  0.0000E+00  0.0000E+00  0.0000E+00
    -72.318  0.9787E-21  0.5705E-19  0.6534E-19
    -72.026  0.9138E-12  0.7247E-10  0.5824E-10
    -71.734  0.4282E-09  0.4547E-07  0.2519E-07
    -71.442  0.8549E-09  0.1272E-05  0.3750E-07
    -71.151  0.5401E-05  0.2844E-01  0.9397E-05
    -70.859  0.2191E-04  0.8645E+01  0.4646E-04
    -70.567  0.1971E-04  0.1182E+02  0.2575E-04
    -70.276  0.1488E-07  0.7369E-02  0.4565E-08
    -69.984  0.2039E-17  0.9520E-12  0.5588E-17
    -69.692  0.0000E+00  0.0000E+00  0.0000E+00
    -69.401  0.0000E+00  0.0000E+00  0.0000E+00
    -69.109  0.0000E+00  0.0000E+00  0.0000E+00
    -68.817  0.0000E+00  0.0000E+00  0.0000E+00
    -68.526  0.0000E+00  0.0000E+00  0.0000E+00
    -68.234  0.0000E+00  0.0000E+00  0.0000E+00
    -67.942  0.0000E+00  0.0000E+00  0.0000E+00
    -67.651  0.0000E+00  0.0000E+00  0.0000E+00
    -67.359  0.0000E+00  0.0000E+00  0.0000E+00
    -67.067  0.0000E+00  0.0000E+00  0.0000E+00
    -66.776  0.0000E+00  0.0000E+00  0.0000E+00
    -66.484  0.0000E+00  0.0000E+00  0.0000E+00
    -66.192  0.0000E+00  0.0000E+00  0.0000E+00
    -65.901  0.0000E+00  0.0000E+00  0.0000E+00
    -65.609  0.0000E+00  0.0000E+00  0.0000E+00
    -65.317  0.0000E+00  0.0000E+00  0.0000E+00
    -65.026  0.0000E+00  0.0000E+00  0.0000E+00
    -64.734  0.0000E+00  0.0000E+00  0.0000E+00
    -64.442  0.0000E+00  0.0000E+00  0.0000E+00
    -64.151  0.0000E+00  0.0000E+00  0.0000E+00
    -63.859  0.0000E+00  0.0000E+00  0.0000E+00
    -63.567  0.0000E+00  0.0000E+00  0.0000E+00
    -63.276  0.0000E+00  0.0000E+00  0.0000E+00
    -62.984  0.0000E+00  0.0000E+00  0.0000E+00
    -62.692  0.0000E+00  0.0000E+00  0.0000E+00
    -62.401  0.0000E+00  0.0000E+00  0.0000E+00
    -62.109  0.0000E+00  0.0000E+00  0.0000E+00
    -61.817  0.0000E+00  0.0000E+00  0.0000E+00
    -61.526  0.0000E+00  0.0000E+00  0.0000E+00
    -61.234  0.0000E+00  0.0000E+00  0.0000E+00
    -60.942  0.0000E+00  0.0000E+00  0.0000E+00
    -60.650  0.0000E+00  0.0000E+00  0.0000E+00
    -60.359  0.0000E+00  0.0000E+00  0.0000E+00
    -60.067  0.0000E+00  0.0000E+00  0.0000E+00
    -59.775  0.0000E+00  0.0000E+00  0.0000E+00
    -59.484  0.0000E+00  0.0000E+00  0.0000E+00
    -59.192  0.0000E+00  0.0000E+00  0.0000E+00
    -58.900  0.0000E+00  0.0000E+00  0.0000E+00
    -58.609  0.0000E+00  0.0000E+00  0.0000E+00
    -58.317  0.0000E+00  0.0000E+00  0.0000E+00
    -58.025  0.0000E+00  0.0000E+00  0.0000E+00
    -57.734  0.0000E+00  0.0000E+00  0.0000E+00
    -57.442  0.0000E+00  0.0000E+00  0.0000E+00
    -57.150  0.0000E+00  0.0000E+00  0.0000E+00
    -56.859  0.0000E+00  0.0000E+00  0.0000E+00
    -56.567  0.0000E+00  0.0000E+00  0.0000E+00
    -56.275  0.0000E+00  0.0000E+00  0.0000E+00
    -55.984  0.0000E+00  0.0000E+00  0.0000E+00
    -55.692  0.0000E+00  0.0000E+00  0.0000E+00
    -55.400  0.0000E+00  0.0000E+00  0.0000E+00
    -55.109  0.0000E+00  0.0000E+00  0.0000E+00
    -54.817  0.0000E+00  0.0000E+00  0.0000E+00
    -54.525  0.0000E+00  0.0000E+00  0.0000E+00
    -54.234  0.0000E+00  0.0000E+00  0.0000E+00
    -53.942  0.0000E+00  0.0000E+00  0.0000E+00
    -53.650  0.0000E+00  0.0000E+00  0.0000E+00
    -53.359  0.0000E+00  0.0000E+00  0.0000E+00
    -53.067  0.0000E+00  0.0000E+00  0.0000E+00
    -52.775  0.0000E+00  0.0000E+00  0.0000E+00
    -52.484  0.0000E+00  0.0000E+00  0.0000E+00
    -52.192  0.0000E+00  0.0000E+00  0.0000E+00
    -51.900  0.0000E+00  0.0000E+00  0.0000E+00
    -51.609  0.0000E+00  0.0000E+00  0.0000E+00
    -51.317  0.0000E+00  0.0000E+00  0.0000E+00
    -51.025  0.0000E+00  0.0000E+00  0.0000E+00
    -50.734  0.0000E+00  0.0000E+00  0.0000E+00
    -50.442  0.0000E+00  0.0000E+00  0.0000E+00
    -50.150  0.0000E+00  0.0000E+00  0.0000E+00
    -49.858  0.0000E+00  0.0000E+00  0.0000E+00