   38   38  150    1
  0.3386168E+02  0.7529542E-09  0.7529542E-09  0.2620742E-08  0.5000000E-15
  1.000000000000000E-004
  CAR 
 unknown system                          
    620      7    372
 
  0.0000000E+00  0.0000000E+00  0.0000000E+00  0.6250000E-01
    1      -71.839742
    2      -71.820002
    3      -71.816456
    4      -71.816023
    5      -71.800943
    6      -71.788983
    7      -71.535181
    8      -71.530884
    9      -71.528018
   10      -71.497156
   11      -71.494994
   12      -71.489998
   13      -71.486571
   14      -71.483321
   15      -71.470580
   16      -71.423957
   17      -71.414101
   18      -71.401213
   19      -71.170333
   20      -71.166835
   21      -71.166658
   22      -71.165564
   23      -71.160983
   24      -71.160864
   25      -71.159698
   26      -71.159536
   27      -71.153615
   28      -71.153496
   29      -71.150585
   30      -71.135322
   31      -71.133173
   32      -71.132913
   33      -71.131381
   34      -71.131113
   35      -71.125163
   36      -71.108750
   37      -71.106807
   38      -71.106578
   39      -71.104477
   40      -71.104412
   41      -71.104083
   42      -71.099185
   43      -71.098961
   44      -71.098591
   45      -71.097591
   46      -71.095126
   47      -71.092877
   48      -71.087230
   49      -71.086430
   50      -71.083759
   51      -71.083707
   52      -71.075126
   53      -71.074260
   54      -71.069269
   55      -71.059222
   56      -71.049771
   57      -71.048551
   58      -71.044412
   59      -71.042379
   60      -71.041292
   61      -71.036754
   62      -71.026548
   63      -71.025711
   64      -71.023669
   65      -71.004525
   66      -71.002300
   67      -71.001693
   68      -70.996682
   69      -70.996090
   70      -70.980403
   71      -70.975146
   72      -70.974820
   73      -70.900575
   74      -70.900553
   75      -70.898468
   76      -70.898186
   77      -70.896246
   78      -70.892239
   79      -70.891172
   80      -70.891124
   81      -70.889389
   82      -70.881608
   83      -70.847490
   84      -70.844903
   85      -70.844114
   86      -70.842946
   87      -70.838961
   88      -70.838831
   89      -70.837675
   90      -70.835274
   91      -70.835095
   92      -70.823081
   93      -70.820271
   94      -70.820145
   95      -70.794309
   96      -70.790933
   97      -70.790475
   98      -70.788023
   99      -70.787970
  100      -70.786994
  101      -70.784836
  102      -70.784797
  103      -70.784361
  104      -70.781631
  105      -70.780954
  106      -70.723272
  107      -70.719313
  108      -70.717718
  109      -12.415344
  110      -12.004174
  111      -10.219441
  112       -8.727142
  113       -7.323934
  114       -7.322901
  115       -7.236964
  116       -7.218972
  117       -7.218252
  118       -7.151547
  119       -7.056892
  120       -6.745299
  121       -6.744671
  122       -6.569581
  123       -6.567665
  124       -6.471046
  125       -6.372865
  126       -6.343072
  127       -6.033150
  128       -6.032997
  129       -5.941710
  130       -5.937477
  131       -5.817443
  132       -5.736046
  133       -5.556199
  134       -5.554281
  135       -5.463140
  136       -5.462997
  137       -5.459810
  138       -5.446190
  139       -5.367545
  140       -5.365034
  141       -5.324209
  142       -5.319385
  143       -5.318374
  144       -5.316609
  145       -5.312218
  146       -5.274742
  147       -5.228646
  148       -5.175381
  149       -5.172963
  150       -5.166964
  151       -5.151350
  152       -5.135494
  153       -5.134495
  154       -5.134028
  155       -5.085429
  156       -5.085266
  157       -5.042250
  158       -5.037046
  159       -4.957113
  160       -4.955448
  161       -4.914975
  162       -4.912871
  163       -4.896326
  164       -4.869598
  165       -4.868701
  166       -4.852218
  167       -4.791057
  168       -4.786848
  169       -4.694289
  170       -4.602699
  171       -4.601445
  172       -4.588949
  173       -4.560895
  174       -4.560516
  175       -4.476572
  176       -4.476322
  177       -4.475558
  178       -4.465069
  179       -4.440413
  180       -4.439662
  181       -4.391010
  182       -4.346697
  183       -4.344691
  184       -4.332937
  185       -4.298818
  186       -4.275645
  187       -4.273970
  188       -4.269022
  189       -4.268703
  190       -4.200704
  191       -4.175862
  192       -4.175210
  193       -4.171533
  194       -4.145725
  195       -4.145225
  196       -4.126940
  197       -4.125914
  198       -4.076803
  199       -4.067713
  200       -4.067587
  201       -4.002878
  202       -3.978327
  203       -3.977308
  204       -3.953777
  205       -3.934705
  206       -3.934452
  207       -3.933170
  208       -3.923415
  209       -3.923272
  210       -3.904851
  211       -3.903676
  212       -3.881550
  213       -3.880728
  214       -3.873513
  215       -3.872769
  216       -3.872290
  217       -3.835258
  218       -3.835159
  219       -3.810218
  220       -3.808964
  221       -3.787630
  222       -3.752731
  223       -3.718058
  224       -3.718025
  225       -3.664156
  226       -3.654660
  227       -3.653173
  228       -3.624091
  229       -3.581998
  230       -3.521664
  231       -3.464812
  232       -3.463896
  233       -3.452242
  234       -3.451666
  235       -3.445102
  236       -3.419391
  237       -3.417684
  238       -3.408460
  239       -3.406956
  240       -3.383200
  241       -3.382877
  242       -3.325039
  243       -3.324149
  244       -3.303797
  245       -3.294320
  246       -3.293774
  247       -3.251040
  248       -3.250856
  249       -3.242372
  250       -3.241205
  251       -3.223442
  252       -3.194679
  253       -3.193612
  254       -3.146254
  255       -3.145131
  256       -3.133182
  257       -3.119242
  258       -3.119120
  259       -3.060317
  260       -3.060278
  261       -3.039623
  262       -3.011987
  263       -2.993651
  264       -2.992125
  265       -2.977697
  266       -2.971316
  267       -2.970359
  268       -2.965074
  269       -2.964597
  270       -2.942166
  271       -2.925860
  272       -2.912428
  273       -2.911244
  274       -2.909567
  275       -2.908754
  276       -2.888225
  277       -2.887027
  278       -2.876722
  279       -2.861982
  280       -2.861429
  281       -2.860856
  282       -2.845540
  283       -2.845268
  284       -2.824157
  285       -2.788607
  286       -2.788187
  287       -2.784886
  288       -2.784729
  289       -2.781530
  290       -2.776852
  291       -2.776354
  292       -2.772683
  293       -2.751053
  294       -2.750152
  295       -2.749643
  296       -2.748254
  297       -2.692981
  298       -2.692255
  299       -2.659354
  300       -2.659120
  301       -2.655431
  302       -2.637491
  303       -2.625445
  304       -2.625395
  305       -2.576641
  306       -1.956610
  307       -1.953328
  308       -1.943850
  309       -1.755228
  310       -1.752581
  311       -1.531664
  312       -1.273676
  313       -0.458391
  314       -0.453208
  315       -0.205083
  316       -0.202768
  317       -0.190575
  318        0.570573
  319        0.711479
  320        1.234426
  321        1.245514
  322        1.936696
  323        2.128872
  324        2.137323
  325        2.536079
  326        2.536097
  327        2.716647
  328        2.800146
  329        2.800225
  330        3.180821
  331        3.289823
  332        3.376884
  333        3.518261
  334        3.518697
  335        3.580011
  336        3.620603
  337        4.070579
  338        4.078136
  339        4.135665
  340        4.225300
  341        4.430783
  342        4.446822
  343        4.483325
  344        4.619972
  345        4.627272
  346        4.964140
  347        5.234804
  348        5.528168
  349        5.528747
  350        5.775357
  351        5.953735
  352        6.003980
  353        6.008024
  354        6.086846
  355        6.153347
  356        6.159477
  357        6.345132
  358        6.712406
  359        6.713718
  360        6.751119
  361        6.917638
  362        6.922759
  363        6.934056
  364        7.125193
  365        7.127079
  366        7.270788
  367        7.271228
  368        7.293138
  369        7.293506
  370        7.344108
  371        7.524262
  372        7.571849
 
  0.2500000E+00  0.5551115E-16  0.0000000E+00  0.2500000E+00
    1      -71.839829
    2      -71.819854
    3      -71.817808
    4      -71.815326
    5      -71.799943
    6      -71.788517
    7      -71.535403
    8      -71.530634
    9      -71.528393
   10      -71.497142
   11      -71.492934
   12      -71.489170
   13      -71.486366
   14      -71.483097
   15      -71.471889
   16      -71.423011
   17      -71.414782
   18      -71.401305
   19      -71.182405
   20      -71.174736
   21      -71.173557
   22      -71.170764
   23      -71.169154
   24      -71.156683
   25      -71.150173
   26      -71.149571
   27      -71.142464
   28      -71.141540
   29      -71.138826
   30      -71.135893
   31      -71.133686
   32      -71.133205
   33      -71.130443
   34      -71.129699
   35      -71.126398
   36      -71.112604
   37      -71.109410
   38      -71.109290
   39      -71.106949
   40      -71.105600
   41      -71.105348
   42      -71.100435
   43      -71.099597
   44      -71.098964
   45      -71.095964
   46      -71.095409
   47      -71.093071
   48      -71.088963
   49      -71.088166
   50      -71.087692
   51      -71.084933
   52      -71.075079
   53      -71.067116
   54      -71.065545
   55      -71.062419
   56      -71.049180
   57      -71.048207
   58      -71.044146
   59      -71.040137
   60      -71.038864
   61      -71.030796
   62      -71.027428
   63      -71.024867
   64      -71.023232
   65      -71.004254
   66      -71.002262
   67      -71.001732
   68      -70.999111
   69      -70.995724
   70      -70.980925
   71      -70.978546
   72      -70.975425
   73      -70.914333
   74      -70.908431
   75      -70.905473
   76      -70.903382
   77      -70.898691
   78      -70.888074
   79      -70.881519
   80      -70.878006
   81      -70.873277
   82      -70.868851
   83      -70.850772
   84      -70.847700
   85      -70.843771
   86      -70.843270
   87      -70.842689
   88      -70.839423
   89      -70.837142
   90      -70.836492
   91      -70.832227
   92      -70.826185
   93      -70.823080
   94      -70.821252
   95      -70.793362
   96      -70.791132
   97      -70.790374
   98      -70.789296
   99      -70.788053
  100      -70.786325
  101      -70.785489
  102      -70.784355
  103      -70.783188
  104      -70.781847
  105      -70.781055
  106      -70.723077
  107      -70.719264
  108      -70.717659
  109      -12.357675
  110      -12.052404
  111      -10.003304
  112       -8.570975
  113       -8.357783
  114       -7.702104
  115       -7.627181
  116       -7.308641
  117       -6.928675
  118       -6.925303
  119       -6.669373
  120       -6.642357
  121       -6.599967
  122       -6.409077
  123       -6.320940
  124       -6.310170
  125       -6.269027
  126       -6.179871
  127       -6.049521
  128       -6.013082
  129       -5.939891
  130       -5.873270
  131       -5.796876
  132       -5.716567
  133       -5.625897
  134       -5.611880
  135       -5.541903
  136       -5.511787
  137       -5.473931
  138       -5.467479
  139       -5.452819
  140       -5.434546
  141       -5.415368
  142       -5.400514
  143       -5.397294
  144       -5.362409
  145       -5.337943
  146       -5.304713
  147       -5.302261
  148       -5.266375
  149       -5.202804
  150       -5.191814
  151       -5.186629
  152       -5.167398
  153       -5.140239
  154       -5.108713
  155       -5.058496
  156       -5.035230
  157       -5.025435
  158       -5.013472
  159       -4.959039
  160       -4.935204
  161       -4.914760
  162       -4.879559
  163       -4.874172
  164       -4.841632
  165       -4.811639
  166       -4.785762
  167       -4.782854
  168       -4.738316
  169       -4.708849
  170       -4.661193
  171       -4.658305
  172       -4.617019
  173       -4.572600
  174       -4.561287
  175       -4.542056
  176       -4.539251
  177       -4.508067
  178       -4.496141
  179       -4.478517
  180       -4.401302
  181       -4.382584
  182       -4.374955
  183       -4.357453
  184       -4.326908
  185       -4.310837
  186       -4.300554
  187       -4.283175
  188       -4.256053
  189       -4.224148
  190       -4.218609
  191       -4.206050
  192       -4.183825
  193       -4.173739
  194       -4.165055
  195       -4.141673
  196       -4.138210
  197       -4.117698
  198       -4.101841
  199       -4.084106
  200       -4.055383
  201       -4.051125
  202       -4.029983
  203       -4.023172
  204       -4.019851
  205       -4.008141
  206       -3.990958
  207       -3.989017
  208       -3.965985
  209       -3.940924
  210       -3.937921
  211       -3.923089
  212       -3.919677
  213       -3.898479
  214       -3.885937
  215       -3.874014
  216       -3.858830
  217       -3.846980
  218       -3.820637
  219       -3.797174
  220       -3.785986
  221       -3.776975
  222       -3.770862
  223       -3.766561
  224       -3.757817
  225       -3.753418
  226       -3.719537
  227       -3.711162
  228       -3.667768
  229       -3.643713
  230       -3.634195
  231       -3.603543
  232       -3.599342
  233       -3.548350
  234       -3.514367
  235       -3.491368
  236       -3.460167
  237       -3.438953
  238       -3.430360
  239       -3.422537
  240       -3.397498
  241       -3.388426
  242       -3.357050
  243       -3.355969
  244       -3.333559
  245       -3.331309
  246       -3.301429
  247       -3.285178
  248       -3.274507
  249       -3.260252
  250       -3.241215
  251       -3.227050
  252       -3.215664
  253       -3.201597
  254       -3.196522
  255       -3.165214
  256       -3.163557
  257       -3.154660
  258       -3.142783
  259       -3.111095
  260       -3.063407
  261       -3.060367
  262       -3.048679
  263       -3.022417
  264       -3.018497
  265       -3.002912
  266       -2.992525
  267       -2.979817
  268       -2.966037
  269       -2.947234
  270       -2.933203
  271       -2.911465
  272       -2.905154
  273       -2.888119
  274       -2.875349
  275       -2.870477
  276       -2.852734
  277       -2.839627
  278       -2.822502
  279       -2.803641
  280       -2.801722
  281       -2.781737
  282       -2.768929
  283       -2.759365
  284       -2.738748
  285       -2.734551
  286       -2.724826
  287       -2.721318
  288       -2.705303
  289       -2.698982
  290       -2.688470
  291       -2.676978
  292       -2.669034
  293       -2.660961
  294       -2.647058
  295       -2.642784
  296       -2.639863
  297       -2.626168
  298       -2.606302
  299       -2.499827
  300       -2.481426
  301       -2.386304
  302       -2.374562
  303       -2.225567
  304       -2.124560
  305       -2.035628
  306       -2.023870
  307       -1.885506
  308       -1.620309
  309       -1.422992
  310       -1.263816
  311       -1.175540
  312       -1.040782
  313       -0.637770
  314       -0.606624
  315       -0.236356
  316        0.026499
  317        0.030200
  318        0.495201
  319        0.544620
  320        0.633396
  321        0.834805
  322        1.140992
  323        1.238987
  324        1.545949
  325        1.622213
  326        1.816570
  327        2.186263
  328        2.508323
  329        2.570439
  330        2.660301
  331        3.079795
  332        3.288602
  333        3.293582
  334        3.592766
  335        3.746005
  336        3.787791
  337        3.913503
  338        4.272537
  339        4.439051
  340        4.479727
  341        4.601411
  342        4.639642
  343        4.817969
  344        5.058771
  345        5.113706
  346        5.193860
  347        5.249791
  348        5.329856
  349        5.427778
  350        5.499424
  351        5.731789
  352        5.820964
  353        5.860858
  354        5.924337
  355        6.046357
  356        6.145671
  357        6.233113
  358        6.342814
  359        6.393279
  360        6.529400
  361        6.575044
  362        6.679515
  363        6.690104
  364        6.806933
  365        6.872892
  366        7.122037
  367        7.217675
  368        7.226834
  369        7.391643
  370        7.490569
  371        7.550824
  372        7.562395
 
  0.5000000E+00  0.1110223E-15  0.0000000E+00  0.1250000E+00
    1      -71.840134
    2      -71.819955
    3      -71.818902
    4      -71.815178
    5      -71.799267
    6      -71.788226
    7      -71.535873
    8      -71.530515
    9      -71.529141
   10      -71.497305
   11      -71.491664
   12      -71.487897
   13      -71.486218
   14      -71.482977
   15      -71.473875
   16      -71.422006
   17      -71.415803
   18      -71.401506
   19      -71.188711
   20      -71.177691
   21      -71.177231
   22      -71.175624
   23      -71.173355
   24      -71.153502
   25      -71.147311
   26      -71.143940
   27      -71.138356
   28      -71.134864
   29      -71.133897
   30      -71.133609
   31      -71.130848
   32      -71.128779
   33      -71.125199
   34      -71.124865
   35      -71.123291
   36      -71.122498
   37      -71.113339
   38      -71.110005
   39      -71.108842
   40      -71.107579
   41      -71.107335
   42      -71.106415
   43      -71.100693
   44      -71.100219
   45      -71.099812
   46      -71.095863
   47      -71.091190
   48      -71.091027
   49      -71.088902
   50      -71.088538
   51      -71.088332
   52      -71.076143
   53      -71.066555
   54      -71.061570
   55      -71.056781
   56      -71.048983
   57      -71.047978
   58      -71.043927
   59      -71.041738
   60      -71.039016
   61      -71.029108
   62      -71.026414
   63      -71.022430
   64      -71.017908
   65      -71.004715
   66      -71.004135
   67      -71.002009
   68      -71.001452
   69      -70.995656
   70      -70.983480
   71      -70.981542
   72      -70.976627
   73      -70.920476
   74      -70.911852
   75      -70.909894
   76      -70.906920
   77      -70.902731
   78      -70.882415
   79      -70.875625
   80      -70.863095
   81      -70.862086
   82      -70.857993
   83      -70.856634
   84      -70.849550
   85      -70.845698
   86      -70.844461
   87      -70.843695
   88      -70.842692
   89      -70.840684
   90      -70.836769
   91      -70.836484
   92      -70.828643
   93      -70.824077
   94      -70.823381
   95      -70.792410
   96      -70.791762
   97      -70.790814
   98      -70.790593
   99      -70.788106
  100      -70.786496
  101      -70.785115
  102      -70.783891
  103      -70.782520
  104      -70.782012
  105      -70.781018
  106      -70.723072
  107      -70.719175
  108      -70.717555
  109      -12.266789
  110      -12.133558
  111       -9.410074
  112       -9.326656
  113       -8.162588
  114       -7.914727
  115       -7.855770
  116       -7.754898
  117       -6.990389
  118       -6.773607
  119       -6.629185
  120       -6.428609
  121       -6.231435
  122       -6.207640
  123       -6.112113
  124       -6.103371
  125       -6.022733
  126       -5.978011
  127       -5.951548
  128       -5.929707
  129       -5.908456
  130       -5.895588
  131       -5.857522
  132       -5.829759
  133       -5.776287
  134       -5.761691
  135       -5.709837
  136       -5.656449
  137       -5.634105
  138       -5.581722
  139       -5.576069
  140       -5.556705
  141       -5.499685
  142       -5.440063
  143       -5.406310
  144       -5.353428
  145       -5.348101
  146       -5.305555
  147       -5.298728
  148       -5.289972
  149       -5.254595
  150       -5.228679
  151       -5.204165
  152       -5.187416
  153       -5.139493
  154       -5.109153
  155       -5.075037
  156       -5.006739
  157       -4.970989
  158       -4.953669
  159       -4.935788
  160       -4.927485
  161       -4.917852
  162       -4.876047
  163       -4.871153
  164       -4.837650
  165       -4.820679
  166       -4.781746
  167       -4.709879
  168       -4.691353
  169       -4.677599
  170       -4.665084
  171       -4.644780
  172       -4.630328
  173       -4.623881
  174       -4.570583
  175       -4.533418
  176       -4.514454
  177       -4.509764
  178       -4.484762
  179       -4.448809
  180       -4.439565
  181       -4.417441
  182       -4.395469
  183       -4.367548
  184       -4.365019
  185       -4.343559
  186       -4.327612
  187       -4.326102
  188       -4.291913
  189       -4.286379
  190       -4.284865
  191       -4.273026
  192       -4.247043
  193       -4.224239
  194       -4.217374
  195       -4.184665
  196       -4.182790
  197       -4.164033
  198       -4.122839
  199       -4.100888
  200       -4.099118
  201       -4.071804
  202       -4.051859
  203       -4.036176
  204       -4.030916
  205       -4.008827
  206       -4.001513
  207       -3.992753
  208       -3.975283
  209       -3.969151
  210       -3.963875
  211       -3.934567
  212       -3.922025
  213       -3.909668
  214       -3.894485
  215       -3.874396
  216       -3.872211
  217       -3.868283
  218       -3.835116
  219       -3.823449
  220       -3.808519
  221       -3.794486
  222       -3.786607
  223       -3.766082
  224       -3.764505
  225       -3.722133
  226       -3.692906
  227       -3.689036
  228       -3.636585
  229       -3.626201
  230       -3.615863
  231       -3.583354
  232       -3.579352
  233       -3.570428
  234       -3.553311
  235       -3.537488
  236       -3.522891
  237       -3.508028
  238       -3.489121
  239       -3.482819
  240       -3.470499
  241       -3.461381
  242       -3.423854
  243       -3.414308
  244       -3.366408
  245       -3.343450
  246       -3.332950
  247       -3.303363
  248       -3.286040
  249       -3.273357
  250       -3.271440
  251       -3.251473
  252       -3.239783
  253       -3.224574
  254       -3.218269
  255       -3.196353
  256       -3.169248
  257       -3.148007
  258       -3.120223
  259       -3.103678
  260       -3.086712
  261       -3.076354
  262       -3.049341
  263       -3.046612
  264       -3.036506
  265       -3.035328
  266       -3.017763
  267       -2.999293
  268       -2.984036
  269       -2.947952
  270       -2.936230
  271       -2.922169
  272       -2.896320
  273       -2.888095
  274       -2.868098
  275       -2.837994
  276       -2.834346
  277       -2.819636
  278       -2.806403
  279       -2.783349
  280       -2.765782
  281       -2.761054
  282       -2.747092
  283       -2.729243
  284       -2.716256
  285       -2.714040
  286       -2.695255
  287       -2.693975
  288       -2.680798
  289       -2.661531
  290       -2.652266
  291       -2.650494
  292       -2.641313
  293       -2.585681
  294       -2.572646
  295       -2.563720
  296       -2.557479
  297       -2.530405
  298       -2.455792
  299       -2.385068
  300       -2.312807
  301       -2.088460
  302       -1.945050
  303       -1.818823
  304       -1.537562
  305       -1.495634
  306       -1.415448
  307       -1.216925
  308       -1.133663
  309       -1.032500
  310       -0.999754
  311       -0.836278
  312       -0.813867
  313       -0.731129
  314       -0.584301
  315       -0.415199
  316       -0.118009
  317       -0.106467
  318       -0.091501
  319        0.150623
  320        0.400930
  321        0.455663
  322        0.461794
  323        0.719195
  324        0.782236
  325        1.317155
  326        1.479341
  327        1.582719
  328        1.914076
  329        2.320712
  330        2.566530
  331        2.700504
  332        2.954808
  333        3.293179
  334        3.431766
  335        3.607965
  336        3.921245
  337        4.102828
  338        4.193153
  339        4.266484
  340        4.350916
  341        4.399006
  342        4.526695
  343        4.760051
  344        4.863753
  345        5.036483
  346        5.099748
  347        5.299250
  348        5.358343
  349        5.388102
  350        5.492721
  351        5.655431
  352        5.691563
  353        5.696129
  354        5.804378
  355        5.883873
  356        6.199066
  357        6.345327
  358        6.389835
  359        6.594247
  360        6.690536
  361        6.701455
  362        6.834384
  363        6.840917
  364        6.950540
  365        6.989115
  366        7.020708
  367        7.124494
  368        7.242704
  369        7.307816
  370        7.419791
  371        7.660540
  372        7.699154
 
  0.0000000E+00  0.2500000E+00  0.0000000E+00  0.1250000E+00
    1      -71.839882
    2      -71.819771
    3      -71.816498
    4      -71.816308
    5      -71.800804
    6      -71.788013
    7      -71.534992
    8      -71.530731
    9      -71.528744
   10      -71.497216
   11      -71.494708
   12      -71.486815
   13      -71.486258
   14      -71.483070
   15      -71.472488
   16      -71.423412
   17      -71.414082
   18      -71.401609
   19      -71.182540
   20      -71.174725
   21      -71.173515
   22      -71.170622
   23      -71.169170
   24      -71.156793
   25      -71.150032
   26      -71.149398
   27      -71.142712
   28      -71.141572
   29      -71.138798
   30      -71.135885
   31      -71.133603
   32      -71.133354
   33      -71.130442
   34      -71.129686
   35      -71.126381
   36      -71.112623
   37      -71.109627
   38      -71.109260
   39      -71.106800
   40      -71.105506
   41      -71.105458
   42      -71.100809
   43      -71.099453
   44      -71.098511
   45      -71.096048
   46      -71.095334
   47      -71.093379
   48      -71.088955
   49      -71.088454
   50      -71.087240
   51      -71.084907
   52      -71.074175
   53      -71.067460
   54      -71.065971
   55      -71.062402
   56      -71.049225
   57      -71.048188
   58      -71.044084
   59      -71.040666
   60      -71.039188
   61      -71.030570
   62      -71.027642
   63      -71.025340
   64      -71.022074
   65      -71.004241
   66      -71.002399
   67      -71.001611
   68      -70.998627
   69      -70.996188
   70      -70.980932
   71      -70.978343
   72      -70.975671
   73      -70.914423
   74      -70.908571
   75      -70.905173
   76      -70.903403
   77      -70.898717
   78      -70.887995
   79      -70.881530
   80      -70.877951
   81      -70.873476
   82      -70.868802
   83      -70.850806
   84      -70.847673
   85      -70.843937
   86      -70.843330
   87      -70.842541
   88      -70.839470
   89      -70.837142
   90      -70.836423
   91      -70.832184
   92      -70.826059
   93      -70.823075
   94      -70.821361
   95      -70.793374
   96      -70.790775
   97      -70.790730
   98      -70.789185
   99      -70.788106
  100      -70.786532
  101      -70.785336
  102      -70.784344
  103      -70.783172
  104      -70.781848
  105      -70.781071
  106      -70.723079
  107      -70.719257
  108      -70.717664
  109      -12.358136
  110      -12.051814
  111      -10.003299
  112       -8.570971
  113       -8.358000
  114       -7.702785
  115       -7.626740
  116       -7.308936
  117       -6.928455
  118       -6.925374
  119       -6.667680
  120       -6.643521
  121       -6.600312
  122       -6.408790
  123       -6.321095
  124       -6.311519
  125       -6.268405
  126       -6.178520
  127       -6.049962
  128       -6.012271
  129       -5.941250
  130       -5.871058
  131       -5.798503
  132       -5.716369
  133       -5.628912
  134       -5.611754
  135       -5.541322
  136       -5.509939
  137       -5.474808
  138       -5.467257
  139       -5.453697
  140       -5.434798
  141       -5.415376
  142       -5.398794
  143       -5.398676
  144       -5.361913
  145       -5.337764
  146       -5.303558
  147       -5.303464
  148       -5.263786
  149       -5.203517
  150       -5.192439
  151       -5.186333
  152       -5.165867
  153       -5.141229
  154       -5.108338
  155       -5.057284
  156       -5.039112
  157       -5.025765
  158       -5.014963
  159       -4.960646
  160       -4.934569
  161       -4.913357
  162       -4.878406
  163       -4.874099
  164       -4.840984
  165       -4.812054
  166       -4.784826
  167       -4.783561
  168       -4.735983
  169       -4.709078
  170       -4.662876
  171       -4.659193
  172       -4.616744
  173       -4.571179
  174       -4.561965
  175       -4.542693
  176       -4.538062
  177       -4.507343
  178       -4.495994
  179       -4.478183
  180       -4.400972
  181       -4.382929
  182       -4.376436
  183       -4.358160
  184       -4.327018
  185       -4.312032
  186       -4.300944
  187       -4.279849
  188       -4.256992
  189       -4.224694
  190       -4.216131
  191       -4.207684
  192       -4.183721
  193       -4.173839
  194       -4.166193
  195       -4.140577
  196       -4.136806
  197       -4.116861
  198       -4.103370
  199       -4.084644
  200       -4.055477
  201       -4.050854
  202       -4.033641
  203       -4.022416
  204       -4.018919
  205       -4.007994
  206       -3.991224
  207       -3.990127
  208       -3.966538
  209       -3.941548
  210       -3.937201
  211       -3.923473
  212       -3.919769
  213       -3.897011
  214       -3.885757
  215       -3.873581
  216       -3.858838
  217       -3.848355
  218       -3.820399
  219       -3.796653
  220       -3.786017
  221       -3.776814
  222       -3.770289
  223       -3.766999
  224       -3.757129
  225       -3.754307
  226       -3.720282
  227       -3.711930