PROCAR new format
# of k-points:    7         # of bands: 372         # of ions:  38

 k-point    1 :    0.00000000 0.00000000 0.00000000     weight = 0.06250000

band   1 # energy  -71.83974247 # occ.  2.00000000
 
ion      s      p      d    tot
  1  0.000  0.000  0.000  0.000
  2  0.000  0.000  0.000  0.000
  3  0.000  0.000  0.000  0.000
  4  0.000  0.000  0.000  0.000
  5  0.000  0.000  0.000  0.000
  6  0.000  0.000  0.000  0.000
  7  0.000  0.000  0.000  0.000
  8  0.000  0.000  0.000  0.000
  9  0.000  0.000  0.000  0.000
 10  0.000  0.000  0.000  0.000
 11  0.000  0.000  0.000  0.000
 12  0.000  0.000  0.000  0.000
 13  0.000  0.000  0.000  0.000
 14  0.000  0.000  0.000  0.000
 15  0.000  0.000  0.000  0.000
 16  0.000  0.000  0.000  0.000
 17  0.000  0.000  0.000  0.000
 18  0.000  0.000  0.000  0.000
 19  0.000  0.000  0.000  0.000
 20  0.000  0.000  0.000  0.000
 21  0.000  0.000  0.000  0.000
 22  0.000  0.000  0.000  0.000
 23  0.000  0.000  0.000  0.000
 24  0.000  0.000  0.000  0.000
 25  0.000  0.000  0.000  0.000
 26  0.000  0.000  0.000  0.000
 27  0.000  0.000  0.000  0.000
 28  0.000  0.003  0.000  0.003
 29  0.000  0.001  0.000  0.001
 30  0.000  0.265  0.000  0.265
 31  0.000  0.003  0.000  0.003
 32  0.000  0.000  0.000  0.000
 33  0.000  0.000  0.000  0.000
 34  0.000  0.459  0.000  0.459
 35  0.000  0.000  0.000  0.000
 36  0.000  0.265  0.000  0.265
 37  0.000  0.000  0.000  0.000
 38  0.000  0.000  0.000  0.000
tot  0.000  0.996  0.000  0.996
 
band   2 # energy  -71.82000235 # occ.  2.00000000
 
ion      s      p      d    tot
  1  0.000  0.000  0.000  0.000
  2  0.000  0.000  0.000  0.000
  3  0.000  0.000  0.000  0.000
  4  0.000  0.000  0.000  0.000
  5  0.000  0.000  0.000  0.000
  6  0.000  0.000  0.000  0.000
  7  0.000  0.000  0.000  0.000
  8  0.000  0.000  0.000  0.000
  9  0.000  0.000  0.000  0.000
 10  0.000  0.000  0.000  0.000
 11  0.000  0.000  0.000  0.000
 12  0.000  0.000  0.000  0.000
 13  0.000  0.000  0.000  0.000
 14  0.000  0.000  0.000  0.000
 15  0.000  0.000  0.000  0.000
 16  0.000  0.000  0.000  0.000
 17  0.000  0.000  0.000  0.000
 18  0.000  0.000  0.000  0.000
 19  0.000  0.000  0.000  0.000
 20  0.000  0.000  0.000  0.000
 21  0.000  0.000  0.000  0.000
 22  0.000  0.000  0.000  0.000
 23  0.000  0.000  0.000  0.000
 24  0.000  0.000  0.000  0.000
 25  0.000  0.000  0.000  0.000
 26  0.000  0.000  0.000  0.000
 27  0.000  0.000  0.000  0.000
 28  0.000  0.000  0.000  0.000
 29  0.000  0.001  0.000  0.001
 30  0.000  0.233  0.000  0.233
 31  0.000  0.000  0.000  0.000
 32  0.000  0.000  0.000  0.000
 33  0.000  0.000  0.000  0.000
 34  0.000  0.531  0.000  0.531
 35  0.000  0.000  0.000  0.000
 36  0.000  0.230  0.000  0.230
 37  0.000  0.000  0.000  0.000
 38  0.000  0.000  0.000  0.000
tot  0.000  0.997  0.000  0.997
 
band   3 # energy  -71.81645570 # occ.  2.00000000
 
ion      s      p      d    tot
  1  0.000  0.000  0.000  0.000
  2  0.000  0.000  0.000  0.000
  3  0.000  0.000  0.000  0.000
  4  0.000  0.000  0.000  0.000
  5  0.000  0.000  0.000  0.000
  6  0.000  0.000  0.000  0.000
  7  0.000  0.000  0.000  0.000
  8  0.000  0.000  0.000  0.000
  9  0.000  0.000  0.000  0.000
 10  0.000  0.000  0.000  0.000
 11  0.000  0.000  0.000  0.000
 12  0.000  0.000  0.000  0.000
 13  0.000  0.000  0.000  0.000
 14  0.000  0.000  0.000  0.000
 15  0.000  0.000  0.000  0.000
 16  0.000  0.000  0.000  0.000
 17  0.000  0.000  0.000  0.000
 18  0.000  0.000  0.000  0.000
 19  0.000  0.000  0.000  0.000
 20  0.000  0.000  0.000  0.000
 21  0.000  0.000  0.000  0.000
 22  0.000  0.000  0.000  0.000
 23  0.000  0.000  0.000  0.000
 24  0.000  0.000  0.000  0.000
 25  0.000  0.000  0.000  0.000
 26  0.000  0.000  0.000  0.000
 27  0.000  0.000  0.000  0.000
 28  0.000  0.004  0.000  0.004
 29  0.000  0.000  0.000  0.000
 30  0.000  0.492  0.000  0.492
 31  0.000  0.004  0.000  0.004
 32  0.000  0.000  0.000  0.000
 33  0.000  0.000  0.000  0.000
 34  0.000  0.001  0.000  0.001
 35  0.000  0.000  0.000  0.000
 36  0.000  0.495  0.000  0.495
 37  0.000  0.000  0.000  0.000
 38  0.000  0.000  0.000  0.000
tot  0.000  0.997  0.000  0.997
 
band   4 # energy  -71.81602275 # occ.  2.00000000
 
ion      s      p      d    tot
  1  0.000  0.000  0.000  0.000
  2  0.000  0.000  0.000  0.000
  3  0.000  0.000  0.000  0.000
  4  0.000  0.000  0.000  0.000
  5  0.000  0.000  0.000  0.000
  6  0.000  0.000  0.000  0.000
  7  0.000  0.000  0.000  0.000
  8  0.000  0.000  0.000  0.000
  9  0.000  0.000  0.000  0.000
 10  0.000  0.000  0.000  0.000
 11  0.000  0.000  0.000  0.000
 12  0.000  0.000  0.000  0.000
 13  0.000  0.000  0.000  0.000
 14  0.000  0.000  0.000  0.000
 15  0.000  0.000  0.000  0.000
 16  0.000  0.000  0.000  0.000
 17  0.000  0.000  0.000  0.000
 18  0.000  0.000  0.000  0.000
 19  0.000  0.000  0.000  0.000
 20  0.000  0.000  0.000  0.000
 21  0.000  0.000  0.000  0.000
 22  0.000  0.000  0.000  0.000
 23  0.000  0.000  0.000  0.000
 24  0.000  0.000  0.000  0.000
 25  0.000  0.000  0.000  0.000
 26  0.000  0.000  0.000  0.000
 27  0.000  0.000  0.000  0.000
 28  0.000  0.437  0.000  0.437
 29  0.000  0.115  0.000  0.115
 30  0.000  0.001  0.000  0.001
 31  0.000  0.436  0.000  0.436
 32  0.000  0.000  0.000  0.000
 33  0.000  0.000  0.000  0.000
 34  0.000  0.005  0.000  0.005
 35  0.000  0.000  0.000  0.000
 36  0.000  0.001  0.000  0.001
 37  0.000  0.000  0.000  0.000
 38  0.000  0.000  0.000  0.000
tot  0.000  0.996  0.000  0.996
 
band   5 # energy  -71.80094266 # occ.  2.00000000
 
ion      s      p      d    tot
  1  0.000  0.000  0.000  0.000
  2  0.000  0.000  0.000  0.000
  3  0.000  0.000  0.000  0.000
  4  0.000  0.000  0.000  0.000
  5  0.000  0.000  0.000  0.000
  6  0.000  0.000  0.000  0.000
  7  0.000  0.000  0.000  0.000
  8  0.000  0.000  0.000  0.000
  9  0.000  0.000  0.000  0.000
 10  0.000  0.000  0.000  0.000
 11  0.000  0.000  0.000  0.000
 12  0.000  0.000  0.000  0.000
 13  0.000  0.000  0.000  0.000
 14  0.000  0.000  0.000  0.000
 15  0.000  0.000  0.000  0.000
 16  0.000  0.000  0.000  0.000
 17  0.000  0.000  0.000  0.000
 18  0.000  0.000  0.000  0.000
 19  0.000  0.000  0.000  0.000
 20  0.000  0.000  0.000  0.000
 21  0.000  0.000  0.000  0.000
 22  0.000  0.000  0.000  0.000
 23  0.000  0.000  0.000  0.000
 24  0.000  0.000  0.000  0.000
 25  0.000  0.000  0.000  0.000
 26  0.000  0.000  0.000  0.000
 27  0.000  0.000  0.000  0.000
 28  0.000  0.489  0.000  0.489
 29  0.000  0.000  0.000  0.000
 30  0.000  0.005  0.000  0.005
 31  0.000  0.490  0.000  0.490
 32  0.000  0.000  0.000  0.000
 33  0.000  0.000  0.000  0.000
 34  0.000  0.006  0.000  0.006
 35  0.000  0.000  0.000  0.000
 36  0.000  0.005  0.000  0.005
 37  0.000  0.000  0.000  0.000
 38  0.000  0.000  0.000  0.000
tot  0.000  0.997  0.000  0.997
 
band   6 # energy  -71.78898343 # occ.  2.00000000
 
ion      s      p      d    tot
  1  0.000  0.000  0.000  0.000
  2  0.000  0.000  0.000  0.000
  3  0.000  0.000  0.000  0.000
  4  0.000  0.000  0.000  0.000
  5  0.000  0.000  0.000  0.000
  6  0.000  0.000  0.000  0.000
  7  0.000  0.000  0.000  0.000
  8  0.000  0.000  0.000  0.000
  9  0.000  0.000  0.000  0.000
 10  0.000  0.000  0.000  0.000
 11  0.000  0.000  0.000  0.000
 12  0.000  0.000  0.000  0.000
 13  0.000  0.000  0.000  0.000
 14  0.000  0.000  0.000  0.000
 15  0.000  0.000  0.000  0.000
 16  0.000  0.000  0.000  0.000
 17  0.000  0.000  0.000  0.000
 18  0.000  0.000  0.000  0.000
 19  0.000  0.000  0.000  0.000
 20  0.000  0.000  0.000  0.000
 21  0.000  0.000  0.000  0.000
 22  0.000  0.000  0.000  0.000
 23  0.000  0.000  0.000  0.000
 24  0.000  0.000  0.000  0.000
 25  0.000  0.000  0.000  0.000
 26  0.000  0.000  0.000  0.000
 27  0.000  0.000  0.000  0.000
 28  0.000  0.057  0.000  0.057
 29  0.000  0.871  0.000  0.871
 30  0.000  0.005  0.000  0.005
 31  0.000  0.057  0.000  0.057
 32  0.000  0.000  0.000  0.000
 33  0.000  0.000  0.000  0.000
 34  0.000  0.001  0.000  0.001
 35  0.000  0.000  0.000  0.000
 36  0.000  0.005  0.000  0.005
 37  0.000  0.000  0.000  0.000
 38  0.000  0.000  0.000  0.000
tot  0.000  0.997  0.000  0.997
 
band   7 # energy  -71.53518120 # occ.  2.00000000
 
ion      s      p      d    tot
  1  0.000  0.000  0.000  0.000
  2  0.000  0.000  0.000  0.000
  3  0.000  0.000  0.000  0.000
  4  0.000  0.000  0.000  0.000
  5  0.000  0.000  0.000  0.000
  6  0.000  0.000  0.000  0.000
  7  0.000  0.000  0.000  0.000
  8  0.000  0.000  0.000  0.000
  9  0.000  0.000  0.000  0.000
 10  0.000  0.000  0.000  0.000
 11  0.000  0.000  0.000  0.000
 12  0.000  0.000  0.000  0.000
 13  0.000  0.000  0.000  0.000
 14  0.000  0.000  0.000  0.000
 15  0.000  0.000  0.000  0.000
 16  0.000  0.000  0.000  0.000
 17  0.000  0.000  0.000  0.000
 18  0.000  0.000  0.000  0.000
 19  0.000  0.000  0.000  0.000
 20  0.000  0.000  0.000  0.000
 21  0.000  0.000  0.000  0.000
 22  0.000  0.000  0.000  0.000
 23  0.000  0.000  0.000  0.000
 24  0.000  0.000  0.000  0.000
 25  0.000  0.000  0.000  0.000
 26  0.000  0.000  0.000  0.000
 27  0.000  0.000  0.000  0.000
 28  0.000  0.062  0.000  0.062
 29  0.000  0.005  0.000  0.005
 30  0.000  0.009  0.000  0.009
 31  0.000  0.062  0.000  0.062
 32  0.000  0.000  0.000  0.000
 33  0.000  0.000  0.000  0.000
 34  0.000  0.850  0.000  0.850
 35  0.000  0.000  0.000  0.000
 36  0.000  0.009  0.000  0.009
 37  0.000  0.000  0.000  0.000
 38  0.000  0.000  0.000  0.000
tot  0.000  0.996  0.000  0.996
 
band   8 # energy  -71.53088443 # occ.  2.00000000
 
ion      s      p      d    tot
  1  0.000  0.000  0.000  0.000
  2  0.000  0.000  0.000  0.000
  3  0.000  0.000  0.000  0.000
  4  0.000  0.000  0.000  0.000
  5  0.000  0.000  0.000  0.000
  6  0.000  0.000  0.000  0.000
  7  0.000  0.000  0.000  0.000
  8  0.000  0.000  0.000  0.000
  9  0.000  0.000  0.000  0.000
 10  0.000  0.000  0.000  0.000
 11  0.000  0.000  0.000  0.000
 12  0.000  0.000  0.000  0.000
 13  0.000  0.000  0.000  0.000
 14  0.000  0.000  0.000  0.000
 15  0.000  0.000  0.000  0.000
 16  0.000  0.000  0.000  0.000
 17  0.000  0.000  0.000  0.000
 18  0.000  0.000  0.000  0.000
 19  0.000  0.000  0.000  0.000
 20  0.000  0.000  0.000  0.000
 21  0.000  0.000  0.000  0.000
 22  0.000  0.000  0.000  0.000
 23  0.000  0.000  0.000  0.000
 24  0.000  0.000  0.000  0.000
 25  0.000  0.000  0.000  0.000
 26  0.000  0.000  0.000  0.000
 27  0.000  0.000  0.000  0.000
 28  0.000  0.064  0.000  0.064
 29  0.000  0.012  0.000  0.012
 30  0.000  0.434  0.000  0.434
 31  0.000  0.062  0.000  0.062
 32  0.000  0.000  0.000  0.000
 33  0.000  0.000  0.000  0.000
 34  0.000  0.008  0.000  0.008
 35  0.000  0.000  0.000  0.000
 36  0.000  0.416  0.000  0.416
 37  0.000  0.000  0.000  0.000
 38  0.000  0.000  0.000  0.000
tot  0.000  0.996  0.000  0.996
 
band   9 # energy  -71.52801765 # occ.  2.00000000
 
ion      s      p      d    tot
  1  0.000  0.000  0.000  0.000
  2  0.000  0.000  0.000  0.000
  3  0.000  0.000  0.000  0.000
  4  0.000  0.000  0.000  0.000
  5  0.000  0.000  0.000  0.000
  6  0.000  0.000  0.000  0.000
  7  0.000  0.000  0.000  0.000
  8  0.000  0.000  0.000  0.000
  9  0.000  0.000  0.000  0.000
 10  0.000  0.000  0.000  0.000
 11  0.000  0.000  0.000  0.000
 12  0.000  0.000  0.000  0.000
 13  0.000  0.000  0.000  0.000
 14  0.000  0.000  0.000  0.000
 15  0.000  0.000  0.000  0.000
 16  0.000  0.000  0.000  0.000
 17  0.000  0.000  0.000  0.000
 18  0.000  0.000  0.000  0.000
 19  0.000  0.000  0.000  0.000
 20  0.000  0.000  0.000  0.000
 21  0.000  0.000  0.000  0.000
 22  0.000  0.000  0.000  0.000
 23  0.000  0.000  0.000  0.000
 24  0.000  0.000  0.000  0.000
 25  0.000  0.000  0.000  0.000
 26  0.000  0.000  0.000  0.000
 27  0.000  0.000  0.000  0.000
 28  0.000  0.040  0.000  0.040
 29  0.000  0.085  0.000  0.085
 30  0.000  0.404  0.000  0.404
 31  0.000  0.042  0.000  0.042
 32  0.000  0.000  0.000  0.000
 33  0.000  0.001  0.000  0.001
 34  0.000  0.002  0.000  0.002
 35  0.000  0.000  0.000  0.000
 36  0.000  0.422  0.000  0.422
 37  0.000  0.000  0.000  0.000
 38  0.000  0.000  0.000  0.000
tot  0.000  0.996  0.000  0.996
 
band  10 # energy  -71.49715554 # occ.  2.00000000
 
ion      s      p      d    tot
  1  0.000  0.000  0.000  0.000
  2  0.000  0.000  0.000  0.000
  3  0.000  0.000  0.000  0.000
  4  0.000  0.000  0.000  0.000
  5  0.000  0.000  0.000  0.000
  6  0.000  0.000  0.000  0.000
  7  0.000  0.000  0.000  0.000
  8  0.000  0.000  0.000  0.000
  9  0.000  0.000  0.000  0.000
 10  0.000  0.000  0.000  0.000
 11  0.000  0.000  0.000  0.000
 12  0.000  0.000  0.000  0.000
 13  0.000  0.000  0.000  0.000
 14  0.000  0.000  0.000  0.000
 15  0.000  0.000  0.000  0.000
 16  0.000  0.000  0.000  0.000
 17  0.000  0.000  0.000  0.000
 18  0.000  0.000  0.000  0.000
 19  0.000  0.000  0.000  0.000
 20  0.000  0.000  0.000  0.000
 21  0.000  0.000  0.000  0.000
 22  0.000  0.000  0.000  0.000
 23  0.000  0.000  0.000  0.000
 24  0.000  0.001  0.000  0.001
 25  0.000  0.000  0.000  0.000
 26  0.000  0.000  0.000  0.000
 27  0.000  0.001  0.000  0.001
 28  0.000  0.006  0.000  0.006
 29  0.000  0.000  0.000  0.000
 30  0.000  0.198  0.000  0.198
 31  0.000  0.006  0.000  0.006
 32  0.000  0.000  0.000  0.000
 33  0.000  0.000  0.000  0.000
 34  0.000  0.588  0.000  0.588
 35  0.000  0.000  0.000  0.000
 36  0.000  0.197  0.000  0.197
 37  0.000  0.000  0.000  0.000
 38  0.000  0.000  0.000  0.000
tot  0.000  0.996  0.000  0.996
 
band  11 # energy  -71.49499376 # occ.  2.00000000
 
ion      s      p      d    tot
  1  0.000  0.000  0.000  0.000
  2  0.000  0.000  0.000  0.000
  3  0.000  0.000  0.000  0.000
  4  0.000  0.000  0.000  0.000
  5  0.000  0.000  0.000  0.000
  6  0.000  0.000  0.000  0.000
  7  0.000  0.000  0.000  0.000
  8  0.000  0.000  0.000  0.000
  9  0.000  0.000  0.000  0.000
 10  0.000  0.000  0.000  0.000
 11  0.000  0.000  0.000  0.000
 12  0.000  0.000  0.000  0.000
 13  0.000  0.000  0.000  0.000
 14  0.000  0.000  0.000  0.000
 15  0.000  0.000  0.000  0.000
 16  0.000  0.000  0.000  0.000
 17  0.000  0.000  0.000  0.000
 18  0.000  0.000  0.000  0.000
 19  0.000  0.000  0.000  0.000
 20  0.000  0.000  0.000  0.000
 21  0.000  0.000  0.000  0.000
 22  0.000  0.000  0.000  0.000
 23  0.000  0.000  0.000  0.000
 24  0.000  0.000  0.000  0.000
 25  0.000  0.000  0.000  0.000
 26  0.000  0.000  0.000  0.000
 27  0.000  0.000  0.000  0.000
 28  0.000  0.429  0.000  0.429
 29  0.000  0.008  0.000  0.008
 30  0.000  0.063  0.000  0.063
 31  0.000  0.430  0.000  0.430
 32  0.000  0.000  0.000  0.000
 33  0.000  0.001  0.000  0.001
 34  0.000  0.003  0.000  0.003
 35  0.000  0.000  0.000  0.000
 36  0.000  0.063  0.000  0.063
 37  0.000  0.000  0.000  0.000
 38  0.000  0.000  0.000  0.000
tot  0.000  0.997  0.000  0.997
 
band  12 # energy  -71.48999759 # occ.  2.00000000
 
ion      s      p      d    tot
  1  0.000  0.000  0.000  0.000
  2  0.000  0.000  0.000  0.000
  3  0.000  0.000  0.000  0.000
  4  0.000  0.000  0.000  0.000
  5  0.000  0.000  0.000  0.000
  6  0.000  0.000  0.000  0.000
  7  0.000  0.000  0.000  0.000
  8  0.000  0.000  0.000  0.000
  9  0.000  0.000  0.000  0.000
 10  0.000  0.000  0.000  0.000
 11  0.000  0.000  0.000  0.000
 12  0.000  0.000  0.000  0.000
 13  0.000  0.000  0.000  0.000
 14  0.000  0.000  0.000  0.000
 15  0.000  0.000  0.000  0.000
 16  0.000  0.000  0.000  0.000
 17  0.000  0.000  0.000  0.000
 18  0.000  0.000  0.000  0.000
 19  0.000  0.000  0.000  0.000
 20  0.000  0.000  0.000  0.000
 21  0.000  0.000  0.000  0.000
 22  0.000  0.000  0.000  0.000
 23  0.000  0.000  0.000  0.000
 24  0.000  0.000  0.000  0.000
 25  0.000  0.000  0.000  0.000
 26  0.000  0.000  0.000  0.000
 27  0.000  0.000  0.000  0.000
 28  0.000  0.263  0.000  0.263
 29  0.000  0.358  0.000  0.358
 30  0.000  0.012  0.000  0.012
 31  0.000  0.261  0.000  0.261
 32  0.000  0.000  0.000  0.001
 33  0.000  0.000  0.000  0.000
 34  0.000  0.088  0.000  0.088
 35  0.000  0.000  0.000  0.001
 36  0.000  0.012  0.000  0.012
 37  0.000  0.000  0.000  0.000
 38  0.000  0.000  0.000  0.000
tot  0.000  0.997  0.000  0.997
 
band  13 # energy  -71.48657095 # occ.  2.00000000
 
ion      s      p      d    tot
  1  0.000  0.000  0.000  0.000
  2  0.000  0.000  0.000  0.000
  3  0.000  0.000  0.000  0.000
  4  0.000  0.000  0.000  0.000
  5  0.000  0.000  0.000  0.000
  6  0.000  0.000  0.000  0.000
  7  0.000  0.000  0.000  0.000
  8  0.000  0.000  0.000  0.000
  9  0.000  0.000  0.000  0.000
 10  0.000  0.000  0.000  0.000
 11  0.000  0.000  0.000  0.000
 12  0.000  0.000  0.000  0.000
 13  0.000  0.000  0.000  0.000
 14  0.000  0.000  0.000  0.000
 15  0.000  0.000  0.000  0.000
 16  0.000  0.000  0.000  0.000
 17  0.000  0.000  0.000  0.000
 18  0.000  0.000  0.000  0.000
 19  0.000  0.000  0.000  0.000
 20  0.000  0.000  0.000  0.000
 21  0.000  0.000  0.000  0.000
 22  0.000  0.000  0.000  0.000
 23  0.000  0.000  0.000  0.000
 24  0.000  0.000  0.000  0.000
 25  0.000  0.000  0.000  0.000
 26  0.000  0.001  0.000  0.001
 27  0.000  0.000  0.000  0.000
 28  0.000  0.004  0.000  0.004
 29  0.000  0.000  0.000  0.000
 30  0.000  0.298  0.000  0.298
 31  0.000  0.004  0.000  0.004
 32  0.000  0.000  0.000  0.000
 33  0.000  0.000  0.000  0.000
 34  0.000  0.396  0.000  0.396
 35  0.000  0.000  0.000  0.000
 36  0.000  0.292  0.000  0.292
 37  0.000  0.000  0.000  0.000
 38  0.000  0.000  0.000  0.000
tot  0.000  0.997  0.000  0.997
 
band  14 # energy  -71.48332077 # occ.  2.00000000
 
ion      s      p      d    tot
  1  0.000  0.000  0.000  0.000
  2  0.000  0.000  0.000  0.000
  3  0.000  0.000  0.000  0.000
  4  0.000  0.000  0.000  0.000
  5  0.000  0.000  0.000  0.000
  6  0.000  0.000  0.000  0.000
  7  0.000  0.000  0.000  0.000
  8  0.000  0.000  0.000  0.000
  9  0.000  0.000  0.000  0.000
 10  0.000  0.000  0.000  0.000
 11  0.000  0.000  0.000  0.000
 12  0.000  0.000  0.000  0.000
 13  0.000  0.000  0.000  0.000
 14  0.000  0.000  0.000  0.000
 15  0.000  0.000  0.000  0.000
 16  0.000  0.000  0.000  0.000
 17  0.000  0.000  0.000  0.000
 18  0.000  0.000  0.000  0.000
 19  0.000  0.000  0.000  0.000
 20  0.000  0.000  0.000  0.000
 21  0.000  0.000  0.000  0.000
 22  0.000  0.000  0.000  0.000
 23  0.000  0.000  0.000  0.000
 24  0.000  0.000  0.000  0.000
 25  0.000  0.000  0.000  0.000
 26  0.000  0.000  0.000  0.000
 27  0.000  0.000  0.000  0.000
 28  0.000  0.011  0.000  0.011
 29  0.000  0.009  0.000  0.009
 30  0.000  0.479  0.000  0.479
 31  0.000  0.011  0.000  0.011
 32  0.000  0.000  0.000  0.000
 33  0.000  0.000  0.000  0.000
 34  0.000  0.000  0.000  0.000
 35  0.000  0.000  0.000  0.000
 36  0.000  0.486  0.000  0.486
 37  0.000  0.000  0.000  0.000
 38  0.000  0.000  0.000  0.000
tot  0.000  0.997  0.000  0.997
 
band  15 # energy  -71.47058033 # occ.  2.00000000
 
ion      s      p      d    tot
  1  0.000  0.000  0.000  0.000
  2  0.000  0.000  0.000  0.000
  3  0.000  0.000  0.000  0.000
  4  0.000  0.000  0.000  0.000
  5  0.000  0.000  0.000  0.000
  6  0.000  0.000  0.000  0.000
  7  0.000  0.000  0.000  0.000
  8  0.000  0.000  0.000  0.000
  9  0.000  0.000  0.000  0.000
 10  0.000  0.000  0.000  0.000
 11  0.000  0.000  0.000  0.000
 12  0.000  0.000  0.000  0.000
 13  0.000  0.000  0.000  0.000
 14  0.000  0.000  0.000  0.000
 15  0.000  0.000  0.000  0.000
 16  0.000  0.000  0.000  0.000
 17  0.000  0.000  0.000  0.000
 18  0.000  0.000  0.000  0.000
 19  0.000  0.000  0.000  0.000
 20  0.000  0.000  0.000  0.000
 21  0.000  0.000  0.000  0.000
 22  0.000  0.000  0.000  0.000
 23  0.000  0.000  0.000  0.000
 24  0.000  0.000  0.000  0.000
 25  0.000  0.000  0.000  0.000
 26  0.000  0.000  0.000  0.000
 27  0.000  0.000  0.000  0.000
 28  0.000  0.141  0.000  0.141
 29  0.000  0.534  0.000  0.534
 30  0.000  0.073  0.000  0.073
 31  0.000  0.141  0.000  0.141
 32  0.000  0.000  0.000  0.000
 33  0.000  0.000  0.000  0.000
 34  0.000  0.035  0.000  0.035
 35  0.000  0.000  0.000  0.000
 36  0.000  0.073  0.000  0.073
 37  0.000  0.000  0.000  0.000
 38  0.000  0.000  0.000  0.000
tot  0.000  0.997  0.000  0.997
 
band  16 # energy  -71.42395681 # occ.  2.00000000
 
ion      s      p      d    tot
  1  0.000  0.000  0.000  0.000
  2  0.000  0.000  0.000  0.000
  3  0.000  0.000  0.000  0.000
  4  0.000  0.000  0.000  0.000
  5  0.000  0.000  0.000  0.000
  6  0.000  0.000  0.000  0.000
  7  0.000  0.000  0.000  0.000
  8  0.000  0.000  0.000  0.000
  9  0.000  0.000  0.000  0.000
 10  0.000  0.000  0.000  0.000
 11  0.000  0.000  0.000  0.000
 12  0.000  0.000  0.000  0.000
 13  0.000  0.000  0.000  0.000
 14  0.000  0.000  0.000  0.000
 15  0.000  0.000  0.000  0.000
 16  0.000  0.000  0.000  0.000
 17  0.000  0.000  0.000  0.000
 18  0.000  0.000  0.000  0.000
 19  0.000  0.000  0.000  0.000
 20  0.000  0.000  0.000  0.000
 21  0.000  0.001  0.000  0.001
 22  0.000  0.000  0.000  0.000
 23  0.000  0.000  0.000  0.000
 24  0.000  0.000  0.000  0.000
 25  0.000  0.000  0.000  0.000
 26  0.000  0.000  0.000  0.000
 27  0.000  0.000  0.000  0.000
 28  0.000  0.460  0.000  0.460
 29  0.000  0.070  0.000  0.070
 30  0.000  0.002  0.000  0.002
 31  0.000  0.460  0.000  0.460
 32  0.000  0.000  0.000  0.000
 33  0.000  0.000  0.000  0.000
 34  0.000  0.001  0.000  0.001
 35  0.000  0.000  0.000  0.000
 36  0.000  0.002  0.000  0.002
 37  0.000  0.000  0.000  0.000
 38  0.000  0.000  0.000  0.000
tot  0.000  0.997  0.000  0.997
 
band  17 # energy  -71.41410144 # occ.  2.00000000
 
ion      s      p      d    tot
  1  0.000  0.000  0.000  0.000
  2  0.000  0.000  0.000  0.000
  3  0.000  0.000  0.000  0.000
  4  0.000  0.000  0.000  0.000
  5  0.000  0.000  0.000  0.000
  6  0.000  0.000  0.000  0.000
  7  0.000  0.000  0.000  0.000
  8  0.000  0.000  0.000  0.000
  9  0.000  0.000  0.000  0.000
 10  0.000  0.000  0.000  0.000
 11  0.000  0.000  0.000  0.000
 12  0.000  0.000  0.000  0.000
 13  0.000  0.000  0.000  0.000
 14  0.000  0.000  0.000  0.000
 15  0.000  0.000  0.000  0.000
 16  0.000  0.000  0.000  0.000
 17  0.000  0.000  0.000  0.000
 18  0.000  0.000  0.000  0.000
 19  0.000  0.000  0.000  0.000
 20  0.000  0.000  0.000  0.000
 21  0.000  0.000  0.000  0.000
 22  0.000  0.000  0.000  0.000
 23  0.000  0.000  0.000  0.000
 24  0.000  0.000  0.000  0.000
 25  0.000  0.000  0.000  0.000
 26  0.000  0.000  0.000  0.000
 27  0.000  0.000  0.000  0.000
 28  0.000  0.484  0.000  0.484
 29  0.000  0.005  0.000  0.005
 30  0.000  0.004  0.000  0.004
 31  0.000  0.484  0.000  0.484
 32  0.000  0.000  0.000  0.000
 33  0.000  0.000  0.000  0.000
 34  0.000  0.014  0.000  0.014
 35  0.000  0.000  0.000  0.000
 36  0.000  0.004  0.000  0.004
 37  0.000  0.000  0.000  0.000
 38  0.000  0.000  0.000  0.000
tot  0.000  0.997  0.000  0.997
 
band  18 # energy  -71.40121339 # occ.  2.00000000
 
ion      s      p      d    tot
  1  0.000  0.000  0.000  0.000
  2  0.000  0.000  0.000  0.000
  3  0.000  0.000  0.000  0.000
  4  0.000  0.000  0.000  0.000
  5  0.000  0.000  0.000  0.000
  6  0.000  0.000  0.000  0.000
  7  0.000  0.000  0.000  0.000
  8  0.000  0.000  0.000  0.000
  9  0.000  0.000  0.000  0.000
 10  0.000  0.000  0.000  0.000
 11  0.000  0.000  0.000  0.000
 12  0.000  0.000  0.000  0.000
 13  0.000  0.000  0.000  0.000
 14  0.000  0.000  0.000  0.000
 15  0.000  0.000  0.000  0.000
 16  0.000  0.000  0.000  0.000
 17  0.000  0.000  0.000  0.000
 18  0.000  0.000  0.000  0.000
 19  0.000  0.000  0.000  0.000
 20  0.000  0.000  0.000  0.000
 21  0.000  0.000  0.000  0.000
 22  0.000  0.000  0.000  0.000
 23  0.000  0.000  0.000  0.000
 24  0.000  0.000  0.000  0.000
 25  0.000  0.000  0.000  0.000
 26  0.000  0.000  0.000  0.000
 27  0.000  0.000  0.000  0.000
 28  0.000  0.034  0.000  0.034
 29  0.000  0.912  0.000  0.912
 30  0.000  0.008  0.000  0.008
 31  0.000  0.034  0.000  0.034
 32  0.000  0.000  0.000  0.000
 33  0.000  0.000  0.000  0.000
 34  0.000  0.000  0.000  0.000
 35  0.000  0.000  0.000  0.000
 36  0.000  0.008  0.000  0.008
 37  0.000  0.000  0.000  0.000
 38  0.000  0.000  0.000  0.000
tot  0.000  0.997  0.000  0.997
 
band  19 # energy  -71.17033297 # occ.  2.00000000
 
ion      s      p      d    tot
  1  0.000  0.001  0.000  0.001
  2  0.000  0.000  0.000  0.000
  3  0.000  0.000  0.000  0.000
  4  0.000  0.001  0.000  0.001
  5  0.000  0.000  0.000  0.000
  6  0.000  0.000  0.000  0.000
  7  0.000  0.000  0.000  0.000
  8  0.000  0.000  0.000  0.000
  9  0.000  0.000  0.000  0.000
 10  0.000  0.000  0.000  0.000
 11  0.000  0.144  0.000  0.144
 12  0.000  0.155  0.000  0.155
 13  0.000  0.155  0.000  0.155
 14  0.000  0.017  0.000  0.017
 15  0.000  0.151  0.000  0.151
 16  0.000  0.156  0.000  0.156
 17  0.000  0.141  0.000  0.141
 18  0.000  0.000  0.000  0.000
 19  0.000  0.000  0.000  0.000
 20  0.000  0.023  0.000  0.023
 21  0.000  0.000  0.000  0.000
 22  0.000  0.027  0.000  0.027
 23  0.000  0.023  0.000  0.023
 24  0.000  0.000  0.000  0.000
 25  0.000  0.000  0.000  0.000
 26  0.000  0.000  0.000  0.000
 27  0.000  0.000  0.000  0.000
 28  0.000  0.000  0.000  0.000
 29  0.000  0.000  0.000  0.000
 30  0.000  0.000  0.000  0.000
 31  0.000  0.000  0.000  0.000
 32  0.000  0.000  0.000  0.000
 33  0.000  0.000  0.000  0.000
 34  0.000  0.000  0.000  0.000
 35  0.000  0.000  0.000  0.000
 36  0.000  0.000  0.000  0.000
 37  0.000  0.000  0.000  0.000
 38  0.000  0.000  0.000  0.000
tot  0.000  0.996  0.000  0.996
 
band  20 # energy  -71.16683549 # occ.  2.00000000
 
ion      s      p      d    tot
  1  0.000  0.000  0.000  0.000
  2  0.000  0.000  0.000  0.000
  3  0.000  0.000  0.000  0.000
  4  0.000  0.000  0.000  0.000
  5  0.000  0.000  0.000  0.000
  6  0.000  0.000  0.000  0.000
  7  0.000  0.000  0.000  0.000
  8  0.000  0.000  0.000  0.000
  9  0.000  0.000  0.000  0.000
 10  0.000  0.004  0.000  0.004
 11  0.000  0.068  0.000  0.068
 12  0.000  0.052  0.000  0.052
 13  0.000  0.180  0.000  0.180
 14  0.000  0.313  0.000  0.313
 15  0.000  0.042  0.000  0.042
 16  0.000  0.179  0.000  0.179
 17  0.000  0.056  0.000  0.056
 18  0.000  0.015  0.000  0.015
 19  0.000  0.000  0.000  0.000
 20  0.000  0.014  0.000  0.014
 21  0.000  0.000  0.000  0.000
 22  0.000  0.058  0.000  0.058
 23  0.000  0.012  0.000  0.012
 24  0.000  0.000  0.000  0.000
 25  0.000  0.000  0.000  0.000
 26  0.000  0.000  0.000  0.000
 27  0.000  0.000  0.000  0.000
 28  0.000  0.000  0.000  0.000
 29  0.000  0.000  0.000  0.000
 30  0.000  0.000  0.000  0.000
 31  0.000  0.000  0.000  0.000
 32  0.000  0.000  0.000  0.000
 33  0.000  0.000  0.000  0.000
 34  0.000  0.000  0.000  0.000
 35  0.000  0.000  0.000  0.000
 36  0.000  0.000  0.000  0.000
 37  0.000  0.000  0.000  0.000
 38  0.000  0.000  0.000  0.000
tot  0.000  0.996  0.000  0.996
 
band  21 # energy  -71.16665796 # occ.  2.00000000
 
ion      s      p      d    tot
  1  0.000  0.000  0.000  0.000
  2  0.000  0.000  0.000  0.000
  3  0.000  0.000  0.000  0.000
  4  0.000  0.000  0.000  0.000
  5  0.000  0.000  0.000  0.000
  6  0.000  0.000  0.000  0.000
  7  0.000  0.000  0.000  0.000
  8  0.000  0.000  0.000  0.000
  9  0.000  0.000  0.000  0.000
 10  0.000  0.006  0.000  0.006
 11  0.000  0.127  0.000  0.127
 12  0.000  0.153  0.000  0.153
 13  0.000  0.004  0.000  0.004
 14  0.000  0.298  0.000  0.298
 15  0.000  0.166  0.000  0.166
 16  0.000  0.005  0.000  0.005
 17  0.000  0.141  0.000  0.141
 18  0.000  0.016  0.000  0.016
 19  0.000  0.000  0.000  0.000
 20  0.000  0.037  0.000  0.037
 21  0.000  0.000  0.000  0.000
 22  0.000  0.000  0.000  0.000
 23  0.000  0.041  0.000  0.041
 24  0.000  0.000  0.000  0.000
 25  0.000  0.000  0.000  0.000
 26  0.000  0.000  0.000  0.000
 27  0.000  0.000  0.000  0.000
 28  0.000  0.000  0.000  0.000
 29  0.000  0.000  0.000  0.000
 30  0.000  0.000  0.000  0.000
 31  0.000  0.000  0.000  0.000
 32  0.000  0.000  0.000  0.000
 33  0.000  0.000  0.000  0.000
 34  0.000  0.000  0.000  0.000
 35  0.000  0.000  0.000  0.000
 36  0.000  0.000  0.000  0.000
 37  0.000  0.000  0.000  0.000
 38  0.000  0.000  0.000  0.000
tot  0.000  0.996  0.000  0.996
 
band  22 # energy  -71.16556402 # occ.  2.00000000
 
ion      s      p      d    tot
  1  0.000  0.000  0.000  0.000
  2  0.000  0.000  0.000  0.000
  3  0.000  0.000  0.000  0.000
  4  0.000  0.000  0.000  0.000
  5  0.000  0.000  0.000  0.000
  6  0.000  0.000  0.000  0.000
  7  0.000  0.000  0.000  0.000
  8  0.000  0.000  0.000  0.000
  9  0.000  0.000  0.000  0.000
 10  0.000  0.000  0.000  0.000
 11  0.000  0.143  0.000  0.143
 12  0.000  0.185  0.000  0.185
 13  0.000  0.154  0.000  0.154
 14  0.000  0.002  0.000  0.002
 15  0.000  0.183  0.000  0.183
 16  0.000  0.158  0.000  0.158
 17  0.000  0.145  0.000  0.145
 18  0.000  0.001  0.000  0.001
 19  0.000  0.001  0.000  0.001
 20  0.000  0.003  0.000  0.003
 21  0.000  0.001  0.000  0.001
 22  0.000  0.002  0.000  0.002
 23  0.000  0.002  0.000  0.002
 24  0.000  0.004  0.000  0.004
 25  0.000  0.001  0.000  0.001
 26  0.000  0.003  0.000  0.003
 27  0.000  0.005  0.000  0.005
 28  0.000  0.000  0.000  0.000
 29  0.000  0.000  0.000  0.000
 30  0.000  0.000  0.000  0.000
 31  0.000  0.000  0.000  0.000
 32  0.000  0.000  0.000  0.000
 33  0.000  0.000  0.000  0.000
 34  0.000  0.000  0.000  0.000
 35  0.000  0.000  0.000  0.000
 36  0.000  0.000  0.000  0.000
 37  0.000  0.000  0.000  0.000
 38  0.000  0.000  0.000  0.000
tot  0.000  0.996  0.000  0.996
 
band  23 # energy  -71.16098324 # occ.  2.00000000
 
ion      s      p      d    tot
  1  0.000  0.000  0.000  0.000
  2  0.000  0.000  0.000  0.000
  3  0.000  0.000  0.000  0.000
  4  0.000  0.000  0.000  0.000
  5  0.000  0.000  0.000  0.000
  6  0.000  0.001  0.000  0.001
  7  0.000  0.000  0.000  0.000
  8  0.000  0.000  0.000  0.000
  9  0.000  0.000  0.000  0.000
 10  0.000  0.029  0.000  0.029
 11  0.000  0.072  0.000  0.072