unknown system                          
           1
     7.529542    0.000000    0.000000
     3.764771    6.520775    0.000000
     0.000000    0.000000   26.207423
   Cu   C 
  36   2
Direct configuration=     1
   0.00000000  0.00000000  0.00000000
   0.00000000  0.33333333  0.00000000
   0.00000000  0.66666667  0.00000000
   0.33333333  0.00000000  0.00000000
   0.33333333  0.33333333  0.00000000
   0.33333333  0.66666667  0.00000000
   0.66666667  0.00000000  0.00000000
   0.66666667  0.33333333  0.00000000
   0.66666667  0.66666667  0.00000000
   0.11111111  0.11111111  0.07819471
   0.11111111  0.44444444  0.07819471
   0.11111111  0.77777778  0.07819471
   0.44444444  0.11111111  0.07819471
   0.44444444  0.44444444  0.07819471
   0.44444444  0.77777778  0.07819471
   0.77777778  0.11111111  0.07819471
   0.77777778  0.44444444  0.07819471
   0.77777778  0.77777778  0.07819471
   0.22156672  0.22156672  0.15698183
   0.22219376  0.55556979  0.15663707
   0.22156672  0.89019990  0.15698183
   0.55556979  0.22219376  0.15663707
   0.55556979  0.55556979  0.15663707
   0.55498583  0.88917375  0.15640686
   0.89019990  0.22156672  0.15698183
   0.88917375  0.55498583  0.15640686
   0.88917375  0.88917375  0.15640686
   0.99499124  0.99499124  0.23819225
   0.99499124  0.34335085  0.23819225
   0.99922840  0.66705247  0.23489935
   0.34335085  0.99499124  0.23819225
   0.33432735  0.33432735  0.23600336
   0.33432735  0.66467863  0.23600336
   0.66705247  0.99922840  0.23489935
   0.66467863  0.33432735  0.23600336
   0.66705247  0.66705247  0.23489935
   0.11111111  0.11111111  0.27869515
   0.66705247  0.99922840  0.32663491
Direct configuration=     2
   0.00000000  0.00000000  0.00000000
   0.00000000  0.33333333  0.00000000
   0.00000000  0.66666667  0.00000000
   0.33333333  0.00000000  0.00000000
   0.33333333  0.33333333  0.00000000
   0.33333333  0.66666667  0.00000000
   0.66666667  0.00000000  0.00000000
   0.66666667  0.33333333  0.00000000
   0.66666667  0.66666667  0.00000000
   0.11111111  0.11111111  0.07819471
   0.11111111  0.44444444  0.07819471
   0.11111111  0.77777778  0.07819471
   0.44444444  0.11111111  0.07819471
   0.44444444  0.44444444  0.07819471
   0.44444444  0.77777778  0.07819471
   0.77777778  0.11111111  0.07819471
   0.77777778  0.44444444  0.07819471
   0.77777778  0.77777778  0.07819471
   0.22180472  0.22152071  0.15702412
   0.22220297  0.55539636  0.15675716
   0.22155519  0.89022296  0.15704280
   0.55569605  0.22194124  0.15654695
   0.55573400  0.55539636  0.15675716
   0.55516911  0.88941568  0.15631690
   0.89000790  0.22152071  0.15702412
   0.88908653  0.55516028  0.15642645
   0.88874855  0.88941568  0.15631690
   0.99536563  0.99474990  0.23857764
   0.99517693  0.34297948  0.23818598
   0.99912891  0.66703675  0.23519730
   0.34321780  0.99474990  0.23857764
   0.33458306  0.33416475  0.23628808
   0.33426011  0.66481311  0.23592545
   0.66703277  0.99926778  0.23846352
   0.66458552  0.33416475  0.23628808
   0.66716768  0.66703675  0.23519730
   0.11073820  0.11185693  0.27864655
   0.66703808  0.99925716  0.32151392
Direct configuration=     3
   0.00000000  0.00000000  0.00000000
   0.00000000  0.33333333  0.00000000
   0.00000000  0.66666667  0.00000000
   0.33333333  0.00000000  0.00000000
   0.33333333  0.33333333  0.00000000
   0.33333333  0.66666667  0.00000000
   0.66666667  0.00000000  0.00000000
   0.66666667  0.33333333  0.00000000
   0.66666667  0.66666667  0.00000000
   0.11111111  0.11111111  0.07819471
   0.11111111  0.44444444  0.07819471
   0.11111111  0.77777778  0.07819471
   0.44444444  0.11111111  0.07819471
   0.44444444  0.44444444  0.07819471
   0.44444444  0.77777778  0.07819471
   0.77777778  0.11111111  0.07819471
   0.77777778  0.44444444  0.07819471
   0.77777778  0.77777778  0.07819471
   0.22251871  0.22138270  0.15715100
   0.22223059  0.55487609  0.15711740
   0.22152059  0.89029216  0.15722571
   0.55607484  0.22118365  0.15627658
   0.55622665  0.55487609  0.15711740
   0.55571893  0.89014146  0.15604702
   0.88943192  0.22138270  0.15715100
   0.88882485  0.55568362  0.15648524
   0.88747294  0.89014146  0.15604702
   0.99648879  0.99402589  0.23973381
   0.99573398  0.34186538  0.23816715
   0.99883042  0.66698959  0.23609113
   0.34281865  0.99402589  0.23973381
   0.33535018  0.33367696  0.23714225
   0.33405839  0.66521656  0.23569173
   0.66697370  0.99938593  0.24915601
   0.66430619  0.33367696  0.23714225
   0.66751332  0.66698959  0.23609113
   0.10961947  0.11409438  0.27850075
   0.66699494  0.99934345  0.30615096
Direct configuration=     4
   0.00000000  0.00000000  0.00000000
   0.00000000  0.33333333  0.00000000
   0.00000000  0.66666667  0.00000000
   0.33333333  0.00000000  0.00000000
   0.33333333  0.33333333  0.00000000
   0.33333333  0.66666667  0.00000000
   0.66666667  0.00000000  0.00000000
   0.66666667  0.33333333  0.00000000
   0.66666667  0.66666667  0.00000000
   0.11111111  0.11111111  0.07819471
   0.11111111  0.44444444  0.07819471
   0.11111111  0.77777778  0.07819471
   0.44444444  0.11111111  0.07819471
   0.44444444  0.44444444  0.07819471
   0.44444444  0.77777778  0.07819471
   0.77777778  0.11111111  0.07819471
   0.77777778  0.44444444  0.07819471
   0.77777778  0.77777778  0.07819471
   0.22196449  0.22148983  0.15705251
   0.22220915  0.55527994  0.15683777
   0.22154744  0.89023845  0.15708373
   0.55578081  0.22177170  0.15648645
   0.55584425  0.55527994  0.15683777
   0.55529215  0.88957809  0.15625651
   0.88987901  0.22148983  0.15705251
   0.88902797  0.55527739  0.15643961
   0.88846309  0.88957809  0.15625651
   0.99561697  0.99458788  0.23883637
   0.99530158  0.34273017  0.23818176
   0.99906211  0.66702619  0.23539732
   0.34312848  0.99458788  0.23883637
   0.33475473  0.33405559  0.23647923
   0.33421497  0.66490340  0.23587315
   0.66701956  0.99929422  0.24085629
   0.66452301  0.33405559  0.23647923
   0.66724503  0.66702619  0.23539732
   0.11048785  0.11235763  0.27861392
   0.66702843  0.99927647  0.31807599
Direct configuration=     5
   0.00000000  0.00000000  0.00000000
   0.00000000  0.33333333  0.00000000
   0.00000000  0.66666667  0.00000000
   0.33333333  0.00000000  0.00000000
   0.33333333  0.33333333  0.00000000
   0.33333333  0.66666667  0.00000000
   0.66666667  0.00000000  0.00000000
   0.66666667  0.33333333  0.00000000
   0.66666667  0.66666667  0.00000000
   0.11111111  0.11111111  0.07819471
   0.11111111  0.44444444  0.07819471
   0.11111111  0.77777778  0.07819471
   0.44444444  0.11111111  0.07819471
   0.44444444  0.44444444  0.07819471
   0.44444444  0.77777778  0.07819471
   0.77777778  0.11111111  0.07819471
   0.77777778  0.44444444  0.07819471
   0.77777778  0.77777778  0.07819471
   0.22224160  0.22143627  0.15710176
   0.22221987  0.55507801  0.15697759
   0.22153402  0.89026530  0.15715472
   0.55592783  0.22147768  0.15638152
   0.55603545  0.55507801  0.15697759
   0.55550554  0.88985978  0.15615177
   0.88965546  0.22143627  0.15710176
   0.88892641  0.55548051  0.15646242
   0.88796802  0.88985978  0.15615177
   0.99605288  0.99430689  0.23928509
   0.99551778  0.34229777  0.23817446
   0.99894627  0.66700789  0.23574422
   0.34297356  0.99430689  0.23928509
   0.33505245  0.33386627  0.23681074
   0.33413668  0.66505998  0.23578244
   0.66699663  0.99934008  0.24500615
   0.66441460  0.33386627  0.23681074
   0.66737917  0.66700789  0.23574422
   0.11005366  0.11322601  0.27855733
   0.66701168  0.99930996  0.31211348
Direct configuration=     6
   0.00000000  0.00000000  0.00000000
   0.00000000  0.33333333  0.00000000
   0.00000000  0.66666667  0.00000000
   0.33333333  0.00000000  0.00000000
   0.33333333  0.33333333  0.00000000
   0.33333333  0.66666667  0.00000000
   0.66666667  0.00000000  0.00000000
   0.66666667  0.33333333  0.00000000
   0.66666667  0.66666667  0.00000000
   0.11111111  0.11111111  0.07819471
   0.11111111  0.44444444  0.07819471
   0.11111111  0.77777778  0.07819471
   0.44444444  0.11111111  0.07819471
   0.44444444  0.44444444  0.07819471
   0.44444444  0.77777778  0.07819471
   0.77777778  0.11111111  0.07819471
   0.77777778  0.44444444  0.07819471
   0.77777778  0.77777778  0.07819471
   0.22226386  0.22143196  0.15710571
   0.22222073  0.55506179  0.15698882
   0.22153294  0.89026746  0.15716042
   0.55593964  0.22145406  0.15637309
   0.55605081  0.55506179  0.15698882
   0.55552268  0.88988240  0.15614335
   0.88963751  0.22143196  0.15710571
   0.88891825  0.55549682  0.15646426
   0.88792825  0.88988240  0.15614335
   0.99608790  0.99428432  0.23932113
   0.99553515  0.34226304  0.23817387
   0.99893696  0.66700642  0.23577209
   0.34296112  0.99428432  0.23932113
   0.33507637  0.33385107  0.23683737
   0.33413039  0.66507256  0.23577515
   0.66699479  0.99934376  0.24533948
   0.66440590  0.33385107  0.23683737
   0.66738995  0.66700642  0.23577209
   0.11001879  0.11329576  0.27855279
   0.66701034  0.99931265  0.31163454
Direct configuration=     7
   0.00000000  0.00000000  0.00000000
   0.00000000  0.33333333  0.00000000
   0.00000000  0.66666667  0.00000000
   0.33333333  0.00000000  0.00000000
   0.33333333  0.33333333  0.00000000
   0.33333333  0.66666667  0.00000000
   0.66666667  0.00000000  0.00000000
   0.66666667  0.33333333  0.00000000
   0.66666667  0.66666667  0.00000000
   0.11111111  0.11111111  0.07819471
   0.11111111  0.44444444  0.07819471
   0.11111111  0.77777778  0.07819471
   0.44444444  0.11111111  0.07819471
   0.44444444  0.44444444  0.07819471
   0.44444444  0.77777778  0.07819471
   0.77777778  0.11111111  0.07819471
   0.77777778  0.44444444  0.07819471
   0.77777778  0.77777778  0.07819471
   0.22225404  0.22143386  0.15710397
   0.22222035  0.55506895  0.15698386
   0.22153341  0.89026651  0.15715791
   0.55593442  0.22146448  0.15637681
   0.55604403  0.55506895  0.15698386
   0.55551512  0.88987242  0.15614706
   0.88964543  0.22143386  0.15710397
   0.88892185  0.55548962  0.15646345
   0.88794580  0.88987242  0.15614706
   0.99607245  0.99429428  0.23930523
   0.99552748  0.34227837  0.23817413
   0.99894107  0.66700707  0.23575979
   0.34296661  0.99429428  0.23930523
   0.33506582  0.33385778  0.23682562
   0.33413316  0.66506701  0.23577837
   0.66699560  0.99934213  0.24519239
   0.66440974  0.33385778  0.23682562
   0.66738520  0.66700707  0.23575979
   0.11003418  0.11326498  0.27855480
   0.66701093  0.99931147  0.31184588
Direct configuration=     8
   0.00000000  0.00000000  0.00000000
   0.00000000  0.33333333  0.00000000
   0.00000000  0.66666667  0.00000000
   0.33333333  0.00000000  0.00000000
   0.33333333  0.33333333  0.00000000
   0.33333333  0.66666667  0.00000000
   0.66666667  0.00000000  0.00000000
   0.66666667  0.33333333  0.00000000
   0.66666667  0.66666667  0.00000000
   0.11111111  0.11111111  0.07819471
   0.11111111  0.44444444  0.07819471
   0.11111111  0.77777778  0.07819471
   0.44444444  0.11111111  0.07819471
   0.44444444  0.44444444  0.07819471
   0.44444444  0.77777778  0.07819471
   0.77777778  0.11111111  0.07819471
   0.77777778  0.44444444  0.07819471
   0.77777778  0.77777778  0.07819471
   0.22237270  0.22127833  0.15723938
   0.22200743  0.55510185  0.15719643
   0.22137906  0.89057521  0.15729270
   0.55660548  0.22012237  0.15691228
   0.55622405  0.55510185  0.15719643
   0.55603250  0.89042786  0.15676499
   0.88968230  0.22127833  0.15723938
   0.88886928  0.55559478  0.15663393
   0.88687297  0.89042786  0.15676499
   0.99577209  0.99318326  0.23924530
   0.99471748  0.34389837  0.23778269
   0.99894181  0.66698626  0.23585546
   0.34437799  0.99318326  0.23924530
   0.33521160  0.33366552  0.23693618
   0.33427097  0.66479138  0.23571461
   0.66713409  0.99906515  0.24402673
   0.66445621  0.33366552  0.23693618
   0.66740526  0.66698626  0.23585546
   0.10931253  0.11470827  0.27923841
   0.66708116  0.99917101  0.31012763
Direct configuration=     9
   0.00000000  0.00000000  0.00000000
   0.00000000  0.33333333  0.00000000
   0.00000000  0.66666667  0.00000000
   0.33333333  0.00000000  0.00000000
   0.33333333  0.33333333  0.00000000
   0.33333333  0.66666667  0.00000000
   0.66666667  0.00000000  0.00000000
   0.66666667  0.33333333  0.00000000
   0.66666667  0.66666667  0.00000000
   0.11111111  0.11111111  0.07819471
   0.11111111  0.44444444  0.07819471
   0.11111111  0.77777778  0.07819471
   0.44444444  0.11111111  0.07819471
   0.44444444  0.44444444  0.07819471
   0.44444444  0.77777778  0.07819471
   0.77777778  0.11111111  0.07819471
   0.77777778  0.44444444  0.07819471
   0.77777778  0.77777778  0.07819471
   0.22247413  0.22114541  0.15735512
   0.22182545  0.55512998  0.15737812
   0.22124714  0.89083905  0.15740790
   0.55717903  0.21897528  0.15736994
   0.55637791  0.55512998  0.15737812
   0.55647471  0.89090259  0.15729313
   0.88971380  0.22114541  0.15735512
   0.88882434  0.55568466  0.15677964
   0.88595603  0.89090259  0.15729313
   0.99551538  0.99223368  0.23919409
   0.99402518  0.34528297  0.23744814
   0.99894245  0.66696847  0.23593723
   0.34558428  0.99223368  0.23919409
   0.33533620  0.33350121  0.23703068
   0.33438876  0.66455581  0.23566012
   0.66725246  0.99882842  0.24303045
   0.66449593  0.33350121  0.23703068
   0.66742242  0.66696847  0.23593723
   0.10869575  0.11594184  0.27982269
   0.66714119  0.99905096  0.30865906
Direct configuration=    10
   0.00000000  0.00000000  0.00000000
   0.00000000  0.33333333  0.00000000
   0.00000000  0.66666667  0.00000000
   0.33333333  0.00000000  0.00000000
   0.33333333  0.33333333  0.00000000
   0.33333333  0.66666667  0.00000000
   0.66666667  0.00000000  0.00000000
   0.66666667  0.33333333  0.00000000
   0.66666667  0.66666667  0.00000000
   0.11111111  0.11111111  0.07819471
   0.11111111  0.44444444  0.07819471
   0.11111111  0.77777778  0.07819471
   0.44444444  0.11111111  0.07819471
   0.44444444  0.44444444  0.07819471
   0.44444444  0.77777778  0.07819471
   0.77777778  0.11111111  0.07819471
   0.77777778  0.44444444  0.07819471
   0.77777778  0.77777778  0.07819471
   0.22250090  0.22109149  0.15740947
   0.22176435  0.55513512  0.15745754
   0.22118618  0.89096098  0.15746552
   0.55736657  0.21860020  0.15758916
   0.55643386  0.55513512  0.15745754
   0.55662819  0.89102684  0.15753272
   0.88974094  0.22109149  0.15740947
   0.88879548  0.55574237  0.15681899
   0.88567830  0.89102684  0.15753272
   0.99589567  0.99220927  0.23931061
   0.99408463  0.34516407  0.23737290
   0.99904330  0.66686652  0.23601291
   0.34522840  0.99220927  0.23931061
   0.33531783  0.33340799  0.23711392
   0.33445650  0.66442034  0.23564619
   0.66730054  0.99873225  0.24201676
   0.66460750  0.33340799  0.23711392
   0.66742352  0.66686652  0.23601291
   0.10833166  0.11667002  0.27982843
   0.66718365  0.99896604  0.30807225
Direct configuration=    11
   0.00000000  0.00000000  0.00000000
   0.00000000  0.33333333  0.00000000
   0.00000000  0.66666667  0.00000000
   0.33333333  0.00000000  0.00000000
   0.33333333  0.33333333  0.00000000
   0.33333333  0.66666667  0.00000000
   0.66666667  0.00000000  0.00000000
   0.66666667  0.33333333  0.00000000
   0.66666667  0.66666667  0.00000000
   0.11111111  0.11111111  0.07819471
   0.11111111  0.44444444  0.07819471
   0.11111111  0.77777778  0.07819471
   0.44444444  0.11111111  0.07819471
   0.44444444  0.44444444  0.07819471
   0.44444444  0.77777778  0.07819471
   0.77777778  0.11111111  0.07819471
   0.77777778  0.44444444  0.07819471
   0.77777778  0.77777778  0.07819471
   0.22258124  0.22092976  0.15757252
   0.22158104  0.55515057  0.15769581
   0.22100329  0.89132676  0.15763840
   0.55792919  0.21747496  0.15824683
   0.55660172  0.55515057  0.15769581
   0.55708865  0.89139957  0.15825152
   0.88982234  0.22092976  0.15757252
   0.88870891  0.55591551  0.15693704
   0.88484511  0.89139957  0.15825152
   0.99703655  0.99213602  0.23966016
   0.99426298  0.34480737  0.23714718
   0.99934584  0.66656066  0.23623995
   0.34416076  0.99213602  0.23966016
   0.33526275  0.33312835  0.23736363
   0.33465971  0.66401392  0.23560442
   0.66744479  0.99844375  0.23897569
   0.66494223  0.33312835  0.23736363
   0.66742683  0.66656066  0.23623995
   0.10723939  0.11885456  0.27984565
   0.66731104  0.99871126  0.30631182
Direct configuration=    12
   0.00000000  0.00000000  0.00000000
   0.00000000  0.33333333  0.00000000
   0.00000000  0.66666667  0.00000000
   0.33333333  0.00000000  0.00000000
   0.33333333  0.33333333  0.00000000
   0.33333333  0.66666667  0.00000000
   0.66666667  0.00000000  0.00000000
   0.66666667  0.33333333  0.00000000
   0.66666667  0.66666667  0.00000000
   0.11111111  0.11111111  0.07819471
   0.11111111  0.44444444  0.07819471
   0.11111111  0.77777778  0.07819471
   0.44444444  0.11111111  0.07819471
   0.44444444  0.44444444  0.07819471
   0.44444444  0.77777778  0.07819471
   0.77777778  0.11111111  0.07819471
   0.77777778  0.44444444  0.07819471
   0.77777778  0.77777778  0.07819471
   0.22261486  0.22086206  0.15764077
   0.22150432  0.55515703  0.15779554
   0.22092673  0.89147987  0.15771076
   0.55816468  0.21700398  0.15852210
   0.55667198  0.55515703  0.15779554
   0.55728138  0.89155558  0.15855239
   0.88985641  0.22086206  0.15764077
   0.88867267  0.55598798  0.15698645
   0.88449637  0.89155558  0.15855239
   0.99751409  0.99210537  0.23980648
   0.99433763  0.34465807  0.23705270
   0.99947248  0.66643264  0.23633499
   0.34371388  0.99210537  0.23980648
   0.33523969  0.33301131  0.23746815
   0.33474477  0.66384380  0.23558693
   0.66750517  0.99832299  0.23770280
   0.66508233  0.33301131  0.23746815
   0.66742821  0.66643264  0.23633499
   0.10678220  0.11976893  0.27985286
   0.66736436  0.99860462  0.30557496
Direct configuration=    13
   0.00000000  0.00000000  0.00000000
   0.00000000  0.33333333  0.00000000
   0.00000000  0.66666667  0.00000000
   0.33333333  0.00000000  0.00000000
   0.33333333  0.33333333  0.00000000
   0.33333333  0.66666667  0.00000000
   0.66666667  0.00000000  0.00000000
   0.66666667  0.33333333  0.00000000
   0.66666667  0.66666667  0.00000000
   0.11111111  0.11111111  0.07819471
   0.11111111  0.44444444  0.07819471
   0.11111111  0.77777778  0.07819471
   0.44444444  0.11111111  0.07819471
   0.44444444  0.44444444  0.07819471
   0.44444444  0.77777778  0.07819471
   0.77777778  0.11111111  0.07819471
   0.77777778  0.44444444  0.07819471
   0.77777778  0.77777778  0.07819471
   0.22258672  0.22086755  0.15765850
   0.22155125  0.55510963  0.15781973
   0.22092167  0.89149000  0.15774320
   0.55776733  0.21779867  0.15850475
   0.55667245  0.55510963  0.15781973
   0.55686794  0.89110152  0.15852395
   0.88987907  0.22086755  0.15765850
   0.88866538  0.55600258  0.15693755
   0.88536388  0.89110152  0.15852395
   0.99850877  0.99263573  0.24023222
   0.99476001  0.34381331  0.23705934
   0.99984446  0.66610124  0.23655826
   0.34218883  0.99263573  0.24023222
   0.33503807  0.33288842  0.23770379
   0.33489136  0.66355061  0.23562437
   0.66750926  0.99831481  0.23658018
   0.66540684  0.33288842  0.23770379
   0.66738763  0.66610124  0.23655826
   0.10626855  0.12079622  0.27956216
   0.66746413  0.99840508  0.30403682
Direct configuration=    14
   0.00000000  0.00000000  0.00000000
   0.00000000  0.33333333  0.00000000
   0.00000000  0.66666667  0.00000000
   0.33333333  0.00000000  0.00000000
   0.33333333  0.33333333  0.00000000
   0.33333333  0.66666667  0.00000000
   0.66666667  0.00000000  0.00000000
   0.66666667  0.33333333  0.00000000
   0.66666667  0.66666667  0.00000000
   0.11111111  0.11111111  0.07819471
   0.11111111  0.44444444  0.07819471
   0.11111111  0.77777778  0.07819471
   0.44444444  0.11111111  0.07819471
   0.44444444  0.44444444  0.07819471
   0.44444444  0.77777778  0.07819471
   0.77777778  0.11111111  0.07819471
   0.77777778  0.44444444  0.07819471
   0.77777778  0.77777778  0.07819471
   0.22254819  0.22087505  0.15768276
   0.22161550  0.55504473  0.15785285
   0.22091473  0.89150387  0.15778760
   0.55722342  0.21888650  0.15848099
   0.55667309  0.55504473  0.15785285
   0.55630199  0.89047997  0.15848504
   0.88991009  0.22087505  0.15768276
   0.88865538  0.55602256  0.15687060
   0.88655137  0.89047997  0.15848504
   0.99987035  0.99336173  0.24081501
   0.99533819  0.34265695  0.23706844
   0.00035365  0.66564760  0.23686390
   0.34010125  0.99336173  0.24081501
   0.33476209  0.33272021  0.23802633
   0.33509203  0.66314927  0.23567562
   0.66751486  0.99830361  0.23504348
   0.66585103  0.33272021  0.23802633
   0.66733208  0.66564760  0.23686390
   0.10556545  0.12220244  0.27916422
   0.66760070  0.99813193  0.30193134
Direct configuration=    15
   0.00000000  0.00000000  0.00000000
   0.00000000  0.33333333  0.00000000
   0.00000000  0.66666667  0.00000000
   0.33333333  0.00000000  0.00000000
   0.33333333  0.33333333  0.00000000
   0.33333333  0.66666667  0.00000000
   0.66666667  0.00000000  0.00000000
   0.66666667  0.33333333  0.00000000
   0.66666667  0.66666667  0.00000000
   0.11111111  0.11111111  0.07819471
   0.11111111  0.44444444  0.07819471
   0.11111111  0.77777778  0.07819471
   0.44444444  0.11111111  0.07819471
   0.44444444  0.44444444  0.07819471
   0.44444444  0.77777778  0.07819471
   0.77777778  0.11111111  0.07819471
   0.77777778  0.44444444  0.07819471
   0.77777778  0.77777778  0.07819471
   0.22251073  0.22095025  0.15761828
   0.22175466  0.55494403  0.15777937
   0.22101030  0.89131272  0.15775429
   0.55636098  0.22061137  0.15797908
   0.55663465  0.55494403  0.15777937
   0.55537476  0.88964547  0.15797023
   0.88987236  0.22095025  0.15761828
   0.88870463  0.55592407  0.15679200
   0.88831311  0.88964547  0.15797023
   0.99949418  0.99292072  0.24105157
   0.99474252  0.34384829  0.23688061
   0.00058737  0.66555448  0.23707499
   0.34091844  0.99292072  0.24105157
   0.33468716  0.33259703  0.23826674
   0.33526397  0.66280539  0.23575138
   0.66747475  0.99838384  0.23447994
   0.66604914  0.33259703  0.23826674
   0.66719148  0.66555448  0.23707499
   0.10520325  0.12292684  0.27954901
   0.66773958  0.99785417  0.30085761
Direct configuration=    16
   0.00000000  0.00000000  0.00000000
   0.00000000  0.33333333  0.00000000
   0.00000000  0.66666667  0.00000000
   0.33333333  0.00000000  0.00000000
   0.33333333  0.33333333  0.00000000
   0.33333333  0.66666667  0.00000000
   0.66666667  0.00000000  0.00000000
   0.66666667  0.33333333  0.00000000
   0.66666667  0.66666667  0.00000000
   0.11111111  0.11111111  0.07819471
   0.11111111  0.44444444  0.07819471
   0.11111111  0.77777778  0.07819471
   0.44444444  0.11111111  0.07819471
   0.44444444  0.44444444  0.07819471
   0.44444444  0.77777778  0.07819471
   0.77777778  0.11111111  0.07819471
   0.77777778  0.44444444  0.07819471
   0.77777778  0.77777778  0.07819471
   0.22245162  0.22106892  0.15751650
   0.22197429  0.55478508  0.15766341
   0.22116115  0.89101104  0.15770173
   0.55499977  0.22333380  0.15718690
   0.55657396  0.55478508  0.15766341
   0.55391127  0.88832833  0.15715770
   0.88981279  0.22106892  0.15751650
   0.88878235  0.55576863  0.15666792
   0.89109373  0.88832833  0.15715770
   0.99890044  0.99222466  0.24142495
   0.99380234  0.34572865  0.23658414
   0.00095625  0.66540751  0.23740817
   0.34220824  0.99222466  0.24142495
   0.33456890  0.33240261  0.23864617
   0.33553535  0.66226264  0.23587096
   0.66741143  0.99851047  0.23359047
   0.66636182  0.33240261  0.23864617
   0.66696958  0.66540751  0.23740817
   0.10463157  0.12407020  0.28015633
   0.66795878  0.99741577  0.29916291
Direct configuration=    17
   0.00000000  0.00000000  0.00000000
   0.00000000  0.33333333  0.00000000
   0.00000000  0.66666667  0.00000000
   0.33333333  0.00000000  0.00000000
   0.33333333  0.33333333  0.00000000
   0.33333333  0.66666667  0.00000000
   0.66666667  0.00000000  0.00000000
   0.66666667  0.33333333  0.00000000
   0.66666667  0.66666667  0.00000000
   0.11111111  0.11111111  0.07819471
   0.11111111  0.44444444  0.07819471
   0.11111111  0.77777778  0.07819471
   0.44444444  0.11111111  0.07819471
   0.44444444  0.44444444  0.07819471
   0.44444444  0.77777778  0.07819471
   0.77777778  0.11111111  0.07819471
   0.77777778  0.44444444  0.07819471
   0.77777778  0.77777778  0.07819471
   0.22247346  0.22108152  0.15747577
   0.22209004  0.55465282  0.15761578
   0.22123720  0.89085893  0.15772169
   0.55435934  0.22461466  0.15658964
   0.55659047  0.55465282  0.15761578
   0.55328094  0.88766325  0.15654275
   0.88977835  0.22108152  0.15747577
   0.88873224  0.55586884  0.15660389
   0.89238915  0.88766325  0.15654275
   0.99849910  0.99197212  0.24172693
   0.99365769  0.34601795  0.23652647
   0.00098987  0.66562864  0.23757635
   0.34286211  0.99197212  0.24172693
   0.33466786  0.33213189  0.23886410
   0.33570134  0.66193065  0.23595378
   0.66734996  0.99863341  0.23215064
   0.66653358  0.33213189  0.23886410
   0.66671482  0.66562864  0.23757635
   0.10409701  0.12513931  0.28034650
   0.66819231  0.99694871  0.29879344
Direct configuration=    18
   0.00000000  0.00000000  0.00000000
   0.00000000  0.33333333  0.00000000
   0.00000000  0.66666667  0.00000000
   0.33333333  0.00000000  0.00000000
   0.33333333  0.33333333  0.00000000
   0.33333333  0.66666667  0.00000000
   0.66666667  0.00000000  0.00000000
   0.66666667  0.33333333  0.00000000
   0.66666667  0.66666667  0.00000000
   0.11111111  0.11111111  0.07819471
   0.11111111  0.44444444  0.07819471
   0.11111111  0.77777778  0.07819471
   0.44444444  0.11111111  0.07819471
   0.44444444  0.44444444  0.07819471
   0.44444444  0.77777778  0.07819471
   0.77777778  0.11111111  0.07819471
   0.77777778  0.44444444  0.07819471
   0.77777778  0.77777778  0.07819471
   0.22249222  0.22109235  0.15744078
   0.22218952  0.55453916  0.15757485
   0.22130255  0.89072822  0.15773885
   0.55380898  0.22571537  0.15607638
   0.55660465  0.55453916  0.15757485
   0.55273927  0.88709170  0.15601430
   0.88974876  0.22109235  0.15744078
   0.88868918  0.55595497  0.15654886
   0.89350236  0.88709170  0.15601430
   0.99815422  0.99175509  0.24198644
   0.99353339  0.34626655  0.23647691
   0.00101876  0.66581867  0.23772087
   0.34342402  0.99175509  0.24198644
   0.33475291  0.33189924  0.23905137
   0.33584399  0.66164535  0.23602495
   0.66729714  0.99873906  0.23091333
   0.66668118  0.33189924  0.23905137
   0.66649590  0.66581867  0.23772087
   0.10363764  0.12605805  0.28050991
   0.66839299  0.99654735  0.29847593
Direct configuration=    19
   0.00000000  0.00000000  0.00000000
   0.00000000  0.33333333  0.00000000
   0.00000000  0.66666667  0.00000000
   0.33333333  0.00000000  0.00000000
   0.33333333  0.33333333  0.00000000
   0.33333333  0.66666667  0.00000000
   0.66666667  0.00000000  0.00000000
   0.66666667  0.33333333  0.00000000
   0.66666667  0.66666667  0.00000000
   0.11111111  0.11111111  0.07819471
   0.11111111  0.44444444  0.07819471
   0.11111111  0.77777778  0.07819471
   0.44444444  0.11111111  0.07819471
   0.44444444  0.44444444  0.07819471
   0.44444444  0.77777778  0.07819471
   0.77777778  0.11111111  0.07819471
   0.77777778  0.44444444  0.07819471
   0.77777778  0.77777778  0.07819471
   0.22248676  0.22108920  0.15745097
   0.22216055  0.55457226  0.15758677
   0.22128352  0.89076629  0.15773385
   0.55396925  0.22539484  0.15622584
   0.55660052  0.55457226  0.15758677
   0.55289701  0.88725814  0.15616819
   0.88975738  0.22108920  0.15745097
   0.88870172  0.55592989  0.15656488
   0.89317819  0.88725814  0.15616819
   0.99825465  0.99181829  0.24191087
   0.99356959  0.34619416  0.23649134
   0.00101035  0.66576334  0.23767879
   0.34326039  0.99181829  0.24191087
   0.33472814  0.33196699  0.23899684
   0.33580245  0.66172843  0.23600422
   0.66731252  0.99870829  0.23127364
   0.66663820  0.33196699  0.23899684
   0.66655965  0.66576334  0.23767879
   0.10377141  0.12579051  0.28046233
   0.66833455  0.99666423  0.29856839
Direct configuration=    20
   0.00000000  0.00000000  0.00000000
   0.00000000  0.33333333  0.00000000
   0.00000000  0.66666667  0.00000000
   0.33333333  0.00000000  0.00000000
   0.33333333  0.33333333  0.00000000
   0.33333333  0.66666667  0.00000000
   0.66666667  0.00000000  0.00000000
   0.66666667  0.33333333  0.00000000
   0.66666667  0.66666667  0.00000000
   0.11111111  0.11111111  0.07819471
   0.11111111  0.44444444  0.07819471
   0.11111111  0.77777778  0.07819471
   0.44444444  0.11111111  0.07819471
   0.44444444  0.44444444  0.07819471
   0.44444444  0.77777778  0.07819471
   0.77777778  0.11111111  0.07819471
   0.77777778  0.44444444  0.07819471
   0.77777778  0.77777778  0.07819471
   0.22255944  0.22099348  0.15750661
   0.22213107  0.55451082  0.15764974
   0.22125800  0.89081733  0.15784406
   0.55412767  0.22507800  0.15598182
   0.55669144  0.55451082  0.15764974
   0.55306776  0.88731185  0.15591746
   0.88978041  0.22099348  0.15750661
   0.88857944  0.55617446  0.15660183
   0.89295372  0.88731185  0.15591746
   0.99825012  0.99214513  0.24213575
   0.99400985  0.34531364  0.23659219
   0.00070945  0.66617739  0.23768007
   0.34293808  0.99214513  0.24213575
   0.33501542  0.33166742  0.23902760
   0.33583230  0.66166874  0.23602861
   0.66728049  0.99877235  0.23074890
   0.66665049  0.33166742  0.23902760
   0.66644649  0.66617739  0.23768007
   0.10354128  0.12625076  0.28022425
   0.66855673  0.99621987  0.29803843
Direct configuration=    21
   0.00000000  0.00000000  0.00000000
   0.00000000  0.33333333  0.00000000
   0.00000000  0.66666667  0.00000000
   0.33333333  0.00000000  0.00000000
   0.33333333  0.33333333  0.00000000
   0.33333333  0.66666667  0.00000000
   0.66666667  0.00000000  0.00000000
   0.66666667  0.33333333  0.00000000
   0.66666667  0.66666667  0.00000000