  38  38   1   0
  0.3386168E+02  0.7529542E-09  0.7529542E-09  0.2620742E-08  0.5000000E-15
  1.000000000000000E-004
  CAR 
 unknown system                          
     11.78808650    -75.57704380  301     -0.88093204      1.00000000
    -75.577  0.0000E+00  0.0000E+00
    -75.286  0.0000E+00  0.0000E+00
    -74.995  0.0000E+00  0.0000E+00
    -74.703  0.0000E+00  0.0000E+00
    -74.412  0.0000E+00  0.0000E+00
    -74.121  0.0000E+00  0.0000E+00
    -73.830  0.0000E+00  0.0000E+00
    -73.539  0.0000E+00  0.0000E+00
    -73.247  0.0000E+00  0.0000E+00
    -72.956  0.0000E+00  0.0000E+00
    -72.665  0.0000E+00  0.0000E+00
    -72.374  0.0000E+00  0.0000E+00
    -72.082  0.4249E-12  0.1237E-12
    -71.791  0.3143E-03  0.9153E-04
    -71.500  0.1288E+00  0.3761E-01
    -71.209  0.3549E+00  0.1410E+00
    -70.918  0.1486E+01  0.5737E+00
    -70.626  0.2243E+01  0.1227E+01
    -70.335  0.7259E+00  0.1438E+01
    -70.044  0.6422E-02  0.1440E+01
    -69.753  0.4524E-09  0.1440E+01
    -69.461  0.0000E+00  0.1440E+01
    -69.170  0.0000E+00  0.1440E+01
    -68.879  0.0000E+00  0.1440E+01
    -68.588  0.0000E+00  0.1440E+01
    -68.297  0.0000E+00  0.1440E+01
    -68.005  0.0000E+00  0.1440E+01
    -67.714  0.0000E+00  0.1440E+01
    -67.423  0.0000E+00  0.1440E+01
    -67.132  0.0000E+00  0.1440E+01
    -66.841  0.0000E+00  0.1440E+01
    -66.549  0.0000E+00  0.1440E+01
    -66.258  0.0000E+00  0.1440E+01
    -65.967  0.0000E+00  0.1440E+01
    -65.676  0.0000E+00  0.1440E+01
    -65.384  0.0000E+00  0.1440E+01
    -65.093  0.0000E+00  0.1440E+01
    -64.802  0.0000E+00  0.1440E+01
    -64.511  0.0000E+00  0.1440E+01
    -64.220  0.0000E+00  0.1440E+01
    -63.928  0.0000E+00  0.1440E+01
    -63.637  0.0000E+00  0.1440E+01
    -63.346  0.0000E+00  0.1440E+01
    -63.055  0.0000E+00  0.1440E+01
    -62.763  0.0000E+00  0.1440E+01
    -62.472  0.0000E+00  0.1440E+01
    -62.181  0.0000E+00  0.1440E+01
    -61.890  0.0000E+00  0.1440E+01
    -61.599  0.0000E+00  0.1440E+01
    -61.307  0.0000E+00  0.1440E+01
    -61.016  0.0000E+00  0.1440E+01
    -60.725  0.0000E+00  0.1440E+01
    -60.434  0.0000E+00  0.1440E+01
    -60.143  0.0000E+00  0.1440E+01
    -59.851  0.0000E+00  0.1440E+01
    -59.560  0.0000E+00  0.1440E+01
    -59.269  0.0000E+00  0.1440E+01
    -58.978  0.0000E+00  0.1440E+01
    -58.686  0.0000E+00  0.1440E+01
    -58.395  0.0000E+00  0.1440E+01
    -58.104  0.0000E+00  0.1440E+01
    -57.813  0.0000E+00  0.1440E+01
    -57.522  0.0000E+00  0.1440E+01
    -57.230  0.0000E+00  0.1440E+01
    -56.939  0.0000E+00  0.1440E+01
    -56.648  0.0000E+00  0.1440E+01
    -56.357  0.0000E+00  0.1440E+01
    -56.065  0.0000E+00  0.1440E+01
    -55.774  0.0000E+00  0.1440E+01
    -55.483  0.0000E+00  0.1440E+01
    -55.192  0.0000E+00  0.1440E+01
    -54.901  0.0000E+00  0.1440E+01
    -54.609  0.0000E+00  0.1440E+01
    -54.318  0.0000E+00  0.1440E+01
    -54.027  0.0000E+00  0.1440E+01
    -53.736  0.0000E+00  0.1440E+01
    -53.445  0.0000E+00  0.1440E+01
    -53.153  0.0000E+00  0.1440E+01
    -52.862  0.0000E+00  0.1440E+01
    -52.571  0.0000E+00  0.1440E+01
    -52.280  0.0000E+00  0.1440E+01
    -51.988  0.0000E+00  0.1440E+01
    -51.697  0.0000E+00  0.1440E+01
    -51.406  0.0000E+00  0.1440E+01
    -51.115  0.0000E+00  0.1440E+01
    -50.824  0.0000E+00  0.1440E+01
    -50.532  0.0000E+00  0.1440E+01
    -50.241  0.0000E+00  0.1440E+01
    -49.950  0.0000E+00  0.1440E+01
    -49.659  0.0000E+00  0.1440E+01
    -49.368  0.0000E+00  0.1440E+01
    -49.076  0.0000E+00  0.1440E+01
    -48.785  0.0000E+00  0.1440E+01
    -48.494  0.0000E+00  0.1440E+01
    -48.203  0.0000E+00  0.1440E+01
    -47.911  0.0000E+00  0.1440E+01
    -47.620  0.0000E+00  0.1440E+01
    -47.329  0.0000E+00  0.1440E+01
    -47.038  0.0000E+00  0.1440E+01
    -46.747  0.0000E+00  0.1440E+01
    -46.455  0.0000E+00  0.1440E+01
    -46.164  0.0000E+00  0.1440E+01
    -45.873  0.0000E+00  0.1440E+01
    -45.582  0.0000E+00  0.1440E+01
    -45.290  0.0000E+00  0.1440E+01
    -44.999  0.0000E+00  0.1440E+01
    -44.708  0.0000E+00  0.1440E+01
    -44.417  0.0000E+00  0.1440E+01
    -44.126  0.0000E+00  0.1440E+01
    -43.834  0.0000E+00  0.1440E+01
    -43.543  0.0000E+00  0.1440E+01
    -43.252  0.0000E+00  0.1440E+01
    -42.961  0.0000E+00  0.1440E+01
    -42.670  0.0000E+00  0.1440E+01
    -42.378  0.0000E+00  0.1440E+01
    -42.087  0.0000E+00  0.1440E+01
    -41.796  0.0000E+00  0.1440E+01
    -41.505  0.0000E+00  0.1440E+01
    -41.213  0.0000E+00  0.1440E+01
    -40.922  0.0000E+00  0.1440E+01
    -40.631  0.0000E+00  0.1440E+01
    -40.340  0.0000E+00  0.1440E+01
    -40.049  0.0000E+00  0.1440E+01
    -39.757  0.0000E+00  0.1440E+01
    -39.466  0.0000E+00  0.1440E+01
    -39.175  0.0000E+00  0.1440E+01
    -38.884  0.0000E+00  0.1440E+01
    -38.592  0.0000E+00  0.1440E+01
    -38.301  0.0000E+00  0.1440E+01
    -38.010  0.0000E+00  0.1440E+01
    -37.719  0.0000E+00  0.1440E+01
    -37.428  0.0000E+00  0.1440E+01
    -37.136  0.0000E+00  0.1440E+01
    -36.845  0.0000E+00  0.1440E+01
    -36.554  0.0000E+00  0.1440E+01
    -36.263  0.0000E+00  0.1440E+01
    -35.972  0.0000E+00  0.1440E+01
    -35.680  0.0000E+00  0.1440E+01
    -35.389  0.0000E+00  0.1440E+01
    -35.098  0.0000E+00  0.1440E+01
    -34.807  0.0000E+00  0.1440E+01
    -34.515  0.0000E+00  0.1440E+01
    -34.224  0.0000E+00  0.1440E+01
    -33.933  0.0000E+00  0.1440E+01
    -33.642  0.0000E+00  0.1440E+01
    -33.351  0.0000E+00  0.1440E+01
    -33.059  0.0000E+00  0.1440E+01
    -32.768  0.0000E+00  0.1440E+01
    -32.477  0.0000E+00  0.1440E+01
    -32.186  0.0000E+00  0.1440E+01
    -31.894  0.0000E+00  0.1440E+01
    -31.603  0.0000E+00  0.1440E+01
    -31.312  0.0000E+00  0.1440E+01
    -31.021  0.0000E+00  0.1440E+01
    -30.730  0.0000E+00  0.1440E+01
    -30.438  0.0000E+00  0.1440E+01
    -30.147  0.0000E+00  0.1440E+01
    -29.856  0.0000E+00  0.1440E+01
    -29.565  0.0000E+00  0.1440E+01
    -29.274  0.0000E+00  0.1440E+01
    -28.982  0.0000E+00  0.1440E+01
    -28.691  0.0000E+00  0.1440E+01
    -28.400  0.0000E+00  0.1440E+01
    -28.109  0.0000E+00  0.1440E+01
    -27.817  0.0000E+00  0.1440E+01
    -27.526  0.0000E+00  0.1440E+01
    -27.235  0.0000E+00  0.1440E+01
    -26.944  0.0000E+00  0.1440E+01
    -26.653  0.0000E+00  0.1440E+01
    -26.361  0.0000E+00  0.1440E+01
    -26.070  0.0000E+00  0.1440E+01
    -25.779  0.0000E+00  0.1440E+01
    -25.488  0.0000E+00  0.1440E+01
    -25.196  0.0000E+00  0.1440E+01
    -24.905  0.0000E+00  0.1440E+01
    -24.614  0.0000E+00  0.1440E+01
    -24.323  0.0000E+00  0.1440E+01
    -24.032  0.0000E+00  0.1440E+01
    -23.740  0.0000E+00  0.1440E+01
    -23.449  0.0000E+00  0.1440E+01
    -23.158  0.0000E+00  0.1440E+01
    -22.867  0.0000E+00  0.1440E+01
    -22.576  0.0000E+00  0.1440E+01
    -22.284  0.0000E+00  0.1440E+01
    -21.993  0.0000E+00  0.1440E+01
    -21.702  0.0000E+00  0.1440E+01
    -21.411  0.0000E+00  0.1440E+01
    -21.119  0.0000E+00  0.1440E+01
    -20.828  0.0000E+00  0.1440E+01
    -20.537  0.0000E+00  0.1440E+01
    -20.246  0.0000E+00  0.1440E+01
    -19.955  0.0000E+00  0.1440E+01
    -19.663  0.0000E+00  0.1440E+01
    -19.372  0.0000E+00  0.1440E+01
    -19.081  0.0000E+00  0.1440E+01
    -18.790  0.0000E+00  0.1440E+01
    -18.498  0.0000E+00  0.1440E+01
    -18.207  0.0000E+00  0.1440E+01
    -17.916  0.0000E+00  0.1440E+01
    -17.625  0.0000E+00  0.1440E+01
    -17.334  0.0000E+00  0.1440E+01
    -17.042  0.0000E+00  0.1440E+01
    -16.751  0.0000E+00  0.1440E+01
    -16.460  0.0000E+00  0.1440E+01
    -16.169  0.0000E+00  0.1440E+01
    -15.878  0.0000E+00  0.1440E+01
    -15.586  0.0000E+00  0.1440E+01
    -15.295  0.0000E+00  0.1440E+01
    -15.004  0.0000E+00  0.1440E+01
    -14.713  0.0000E+00  0.1440E+01
    -14.421  0.0000E+00  0.1440E+01
    -14.130  0.0000E+00  0.1440E+01
    -13.839  0.0000E+00  0.1440E+01
    -13.548  0.0000E+00  0.1440E+01
    -13.257  0.0000E+00  0.1440E+01
    -12.965  0.6225E-15  0.1440E+01
    -12.674  0.5014E-05  0.1440E+01
    -12.383  0.2569E-01  0.1447E+01
    -12.092  0.2009E-01  0.1453E+01
    -11.800  0.1970E-02  0.1454E+01
    -11.509  0.4291E-01  0.1466E+01
    -11.218  0.9059E-03  0.1467E+01
    -10.927  0.7592E-10  0.1467E+01
    -10.636  0.0000E+00  0.1467E+01
    -10.344  0.7147E-08  0.1467E+01
    -10.053  0.9406E-03  0.1467E+01
     -9.762  0.1414E-01  0.1471E+01
     -9.471  0.6363E-02  0.1473E+01
     -9.180  0.2256E-01  0.1479E+01
     -8.888  0.1036E-01  0.1482E+01
     -8.597  0.9796E-02  0.1485E+01
     -8.306  0.3972E-01  0.1497E+01
     -8.015  0.2714E-01  0.1505E+01
     -7.723  0.2564E-01  0.1512E+01
     -7.432  0.4579E-01  0.1526E+01
     -7.141  0.4323E-01  0.1538E+01
     -6.850  0.5683E-01  0.1555E+01
     -6.559  0.5811E-01  0.1572E+01
     -6.267  0.1322E+00  0.1610E+01
     -5.976  0.1416E+00  0.1651E+01
     -5.685  0.2460E+00  0.1723E+01
     -5.394  0.2619E+00  0.1799E+01
     -5.103  0.4740E+00  0.1937E+01
     -4.811  0.4571E+00  0.2070E+01
     -4.520  0.5004E+00  0.2216E+01
     -4.229  0.5875E+00  0.2387E+01
     -3.938  0.7366E+00  0.2602E+01
     -3.646  0.9558E+00  0.2880E+01
     -3.355  0.7303E+00  0.3093E+01
     -3.064  0.7657E+00  0.3316E+01
     -2.773  0.8734E+00  0.3570E+01
     -2.482  0.1009E+01  0.3864E+01
     -2.190  0.4496E+00  0.3995E+01
     -1.899  0.1403E+00  0.4036E+01
     -1.608  0.1138E+00  0.4069E+01
     -1.317  0.5589E-01  0.4085E+01
     -1.025  0.1026E+00  0.4115E+01
     -0.734  0.1085E+00  0.4147E+01
     -0.443  0.8330E-01  0.4171E+01
     -0.152  0.7307E-01  0.4192E+01
      0.139  0.7288E-01  0.4214E+01
      0.431  0.7776E-01  0.4236E+01
      0.722  0.7963E-01  0.4259E+01
      1.013  0.8670E-01  0.4285E+01
      1.304  0.4990E-01  0.4299E+01
      1.595  0.8971E-01  0.4325E+01
      1.887  0.6717E-01  0.4345E+01
      2.178  0.5737E-01  0.4362E+01
      2.469  0.4764E-01  0.4375E+01
      2.760  0.5176E-01  0.4391E+01
      3.052  0.6426E-01  0.4409E+01
      3.343  0.4572E-01  0.4423E+01
      3.634  0.6576E-01  0.4442E+01
      3.925  0.1001E+00  0.4471E+01
      4.216  0.9178E-01  0.4498E+01
      4.508  0.9526E-01  0.4525E+01
      4.799  0.1074E+00  0.4557E+01
      5.090  0.1300E+00  0.4594E+01
      5.381  0.1274E+00  0.4632E+01
      5.673  0.1278E+00  0.4669E+01
      5.964  0.1247E+00  0.4705E+01
      6.255  0.1414E+00  0.4746E+01
      6.546  0.1608E+00  0.4793E+01
      6.837  0.1398E+00  0.4834E+01
      7.129  0.1292E+00  0.4871E+01
      7.420  0.1704E+00  0.4921E+01
      7.711  0.1096E+00  0.4953E+01
      8.002  0.2410E-01  0.4960E+01
      8.293  0.2587E-04  0.4960E+01
      8.585  0.3215E-13  0.4960E+01
      8.876  0.0000E+00  0.4960E+01
      9.167  0.0000E+00  0.4960E+01
      9.458  0.0000E+00  0.4960E+01
      9.750  0.0000E+00  0.4960E+01
     10.041  0.0000E+00  0.4960E+01
     10.332  0.0000E+00  0.4960E+01
     10.623  0.0000E+00  0.4960E+01
     10.914  0.0000E+00  0.4960E+01
     11.206  0.0000E+00  0.4960E+01
     11.497  0.0000E+00  0.4960E+01
     11.788  0.0000E+00  0.4960E+01
     11.78808650    -75.57704380  301     -0.88093204      1.00000000
    -75.577  0.0000E+00  0.0000E+00  0.0000E+00
    -75.286  0.0000E+00  0.0000E+00  0.0000E+00
    -74.995  0.0000E+00  0.0000E+00  0.0000E+00
    -74.703  0.0000E+00  0.0000E+00  0.0000E+00
    -74.412  0.0000E+00  0.0000E+00  0.0000E+00
    -74.121  0.0000E+00  0.0000E+00  0.0000E+00
    -73.830  0.0000E+00  0.0000E+00  0.0000E+00
    -73.539  0.0000E+00  0.0000E+00  0.0000E+00
    -73.247  0.0000E+00  0.0000E+00  0.0000E+00
    -72.956  0.0000E+00  0.0000E+00  0.0000E+00
    -72.665  0.0000E+00  0.0000E+00  0.0000E+00
    -72.374  0.0000E+00  0.0000E+00  0.0000E+00
    -72.082  0.1102E-20  0.6970E-19  0.5066E-19
    -71.791  0.7514E-12  0.5462E-10  0.3771E-10
    -71.500  0.2477E-09  0.2808E-07  0.1442E-07
    -71.209  0.1406E-07  0.4615E-04  0.5897E-07
    -70.918  0.9943E-05  0.7470E-01  0.1865E-04
    -70.626  0.2548E-04  0.1383E+02  0.5264E-04
    -70.335  0.9771E-05  0.6637E+01  0.9580E-05
    -70.044  0.6740E-09  0.3630E-03  0.1226E-08
    -69.753  0.1966E-17  0.4053E-14  0.8746E-16
    -69.461  0.0000E+00  0.0000E+00  0.0000E+00
    -69.170  0.0000E+00  0.0000E+00  0.0000E+00
    -68.879  0.0000E+00  0.0000E+00  0.0000E+00
    -68.588  0.0000E+00  0.0000E+00  0.0000E+00
    -68.297  0.0000E+00  0.0000E+00  0.0000E+00
    -68.005  0.0000E+00  0.0000E+00  0.0000E+00
    -67.714  0.0000E+00  0.0000E+00  0.0000E+00
    -67.423  0.0000E+00  0.0000E+00  0.0000E+00
    -67.132  0.0000E+00  0.0000E+00  0.0000E+00
    -66.841  0.0000E+00  0.0000E+00  0.0000E+00
    -66.549  0.0000E+00  0.0000E+00  0.0000E+00
    -66.258  0.0000E+00  0.0000E+00  0.0000E+00
    -65.967  0.0000E+00  0.0000E+00  0.0000E+00
    -65.676  0.0000E+00  0.0000E+00  0.0000E+00
    -65.384  0.0000E+00  0.0000E+00  0.0000E+00
    -65.093  0.0000E+00  0.0000E+00  0.0000E+00
    -64.802  0.0000E+00  0.0000E+00  0.0000E+00
    -64.511  0.0000E+00  0.0000E+00  0.0000E+00
    -64.220  0.0000E+00  0.0000E+00  0.0000E+00
    -63.928  0.0000E+00  0.0000E+00  0.0000E+00
    -63.637  0.0000E+00  0.0000E+00  0.0000E+00
    -63.346  0.0000E+00  0.0000E+00  0.0000E+00
    -63.055  0.0000E+00  0.0000E+00  0.0000E+00
    -62.763  0.0000E+00  0.0000E+00  0.0000E+00
    -62.472  0.0000E+00  0.0000E+00  0.0000E+00
    -62.181  0.0000E+00  0.0000E+00  0.0000E+00
    -61.890  0.0000E+00  0.0000E+00  0.0000E+00
    -61.599  0.0000E+00  0.0000E+00  0.0000E+00
    -61.307  0.0000E+00  0.0000E+00  0.0000E+00
    -61.016  0.0000E+00  0.0000E+00  0.0000E+00
    -60.725  0.0000E+00  0.0000E+00  0.0000E+00
    -60.434  0.0000E+00  0.0000E+00  0.0000E+00
    -60.143  0.0000E+00  0.0000E+00  0.0000E+00
    -59.851  0.0000E+00  0.0000E+00  0.0000E+00
    -59.560  0.0000E+00  0.0000E+00  0.0000E+00
    -59.269  0.0000E+00  0.0000E+00  0.0000E+00
    -58.978  0.0000E+00  0.0000E+00  0.0000E+00
    -58.686  0.0000E+00  0.0000E+00  0.0000E+00
    -58.395  0.0000E+00  0.0000E+00  0.0000E+00
    -58.104  0.0000E+00  0.0000E+00  0.0000E+00
    -57.813  0.0000E+00  0.0000E+00  0.0000E+00
    -57.522  0.0000E+00  0.0000E+00  0.0000E+00
    -57.230  0.0000E+00  0.0000E+00  0.0000E+00
    -56.939  0.0000E+00  0.0000E+00  0.0000E+00
    -56.648  0.0000E+00  0.0000E+00  0.0000E+00
    -56.357  0.0000E+00  0.0000E+00  0.0000E+00
    -56.065  0.0000E+00  0.0000E+00  0.0000E+00
    -55.774  0.0000E+00  0.0000E+00  0.0000E+00
    -55.483  0.0000E+00  0.0000E+00  0.0000E+00
    -55.192  0.0000E+00  0.0000E+00  0.0000E+00
    -54.901  0.0000E+00  0.0000E+00  0.0000E+00
    -54.609  0.0000E+00  0.0000E+00  0.0000E+00
    -54.318  0.0000E+00  0.0000E+00  0.0000E+00
    -54.027  0.0000E+00  0.0000E+00  0.0000E+00
    -53.736  0.0000E+00  0.0000E+00  0.0000E+00
    -53.445  0.0000E+00  0.0000E+00  0.0000E+00
    -53.153  0.0000E+00  0.0000E+00  0.0000E+00
    -52.862  0.0000E+00  0.0000E+00  0.0000E+00
    -52.571  0.0000E+00  0.0000E+00  0.0000E+00
    -52.280  0.0000E+00  0.0000E+00  0.0000E+00
    -51.988  0.0000E+00  0.0000E+00  0.0000E+00
    -51.697  0.0000E+00  0.0000E+00  0.0000E+00
    -51.406  0.0000E+00  0.0000E+00  0.0000E+00
    -51.115  0.0000E+00  0.0000E+00  0.0000E+00
    -50.824  0.0000E+00  0.0000E+00  0.0000E+00
    -50.532  0.0000E+00  0.0000E+00  0.0000E+00
    -50.241  0.0000E+00  0.0000E+00  0.0000E+00
    -49.950  0.0000E+00  0.0000E+00  0.0000E+00
    -49.659  0.0000E+00  0.0000E+00  0.0000E+00
    -49.368  0.0000E+00  0.0000E+00  0.0000E+00
    -49.076  0.0000E+00  0.0000E+00  0.0000E+00
    -48.785  0.0000E+00  0.0000E+00  0.0000E+00
    -48.494  0.0000E+00  0.0000E+00  0.0000E+00
    -48.203  0.0000E+00  0.0000E+00  0.0000E+00
    -47.911  0.0000E+00  0.0000E+00  0.0000E+00
    -47.620  0.0000E+00  0.0000E+00  0.0000E+00
    -47.329  0.0000E+00  0.0000E+00  0.0000E+00
    -47.038  0.0000E+00  0.0000E+00  0.0000E+00
    -46.747  0.0000E+00  0.0000E+00  0.0000E+00
    -46.455  0.0000E+00  0.0000E+00  0.0000E+00
    -46.164  0.0000E+00  0.0000E+00  0.0000E+00
    -45.873  0.0000E+00  0.0000E+00  0.0000E+00
    -45.582  0.0000E+00  0.0000E+00  0.0000E+00
    -45.290  0.0000E+00  0.0000E+00  0.0000E+00
    -44.999  0.0000E+00  0.0000E+00  0.0000E+00
    -44.708  0.0000E+00  0.0000E+00  0.0000E+00
    -44.417  0.0000E+00  0.0000E+00  0.0000E+00
    -44.126  0.0000E+00  0.0000E+00  0.0000E+00
    -43.834  0.0000E+00  0.0000E+00  0.0000E+00
    -43.543  0.0000E+00  0.0000E+00  0.0000E+00
    -43.252  0.0000E+00  0.0000E+00  0.0000E+00
    -42.961  0.0000E+00  0.0000E+00  0.0000E+00
    -42.670  0.0000E+00  0.0000E+00  0.0000E+00
    -42.378  0.0000E+00  0.0000E+00  0.0000E+00
    -42.087  0.0000E+00  0.0000E+00  0.0000E+00
    -41.796  0.0000E+00  0.0000E+00  0.0000E+00
    -41.505  0.0000E+00  0.0000E+00  0.0000E+00
    -41.213  0.0000E+00  0.0000E+00  0.0000E+00
    -40.922  0.0000E+00  0.0000E+00  0.0000E+00
    -40.631  0.0000E+00  0.0000E+00  0.0000E+00
    -40.340  0.0000E+00  0.0000E+00  0.0000E+00
    -40.049  0.0000E+00  0.0000E+00  0.0000E+00
    -39.757  0.0000E+00  0.0000E+00  0.0000E+00
    -39.466  0.0000E+00  0.0000E+00  0.0000E+00
    -39.175  0.0000E+00  0.0000E+00  0.0000E+00
    -38.884  0.0000E+00  0.0000E+00  0.0000E+00
    -38.592  0.0000E+00  0.0000E+00  0.0000E+00
    -38.301  0.0000E+00  0.0000E+00  0.0000E+00
    -38.010  0.0000E+00  0.0000E+00  0.0000E+00
    -37.719  0.0000E+00  0.0000E+00  0.0000E+00
    -37.428  0.0000E+00  0.0000E+00  0.0000E+00
    -37.136  0.0000E+00  0.0000E+00  0.0000E+00
    -36.845  0.0000E+00  0.0000E+00  0.0000E+00
    -36.554  0.0000E+00  0.0000E+00  0.0000E+00
    -36.263  0.0000E+00  0.0000E+00  0.0000E+00
    -35.972  0.0000E+00  0.0000E+00  0.0000E+00
    -35.680  0.0000E+00  0.0000E+00  0.0000E+00
    -35.389  0.0000E+00  0.0000E+00  0.0000E+00
    -35.098  0.0000E+00  0.0000E+00  0.0000E+00
    -34.807  0.0000E+00  0.0000E+00  0.0000E+00
    -34.515  0.0000E+00  0.0000E+00  0.0000E+00
    -34.224  0.0000E+00  0.0000E+00  0.0000E+00
    -33.933  0.0000E+00  0.0000E+00  0.0000E+00
    -33.642  0.0000E+00  0.0000E+00  0.0000E+00
    -33.351  0.0000E+00  0.0000E+00  0.0000E+00
    -33.059  0.0000E+00  0.0000E+00  0.0000E+00
    -32.768  0.0000E+00  0.0000E+00  0.0000E+00
    -32.477  0.0000E+00  0.0000E+00  0.0000E+00
    -32.186  0.0000E+00  0.0000E+00  0.0000E+00
    -31.894  0.0000E+00  0.0000E+00  0.0000E+00
    -31.603  0.0000E+00  0.0000E+00  0.0000E+00
    -31.312  0.0000E+00  0.0000E+00  0.0000E+00
    -31.021  0.0000E+00  0.0000E+00  0.0000E+00
    -30.730  0.0000E+00  0.0000E+00  0.0000E+00
    -30.438  0.0000E+00  0.0000E+00  0.0000E+00
    -30.147  0.0000E+00  0.0000E+00  0.0000E+00
    -29.856  0.0000E+00  0.0000E+00  0.0000E+00
    -29.565  0.0000E+00  0.0000E+00  0.0000E+00
    -29.274  0.0000E+00  0.0000E+00  0.0000E+00
    -28.982  0.0000E+00  0.0000E+00  0.0000E+00
    -28.691  0.0000E+00  0.0000E+00  0.0000E+00
    -28.400  0.0000E+00  0.0000E+00  0.0000E+00
    -28.109  0.0000E+00  0.0000E+00  0.0000E+00
    -27.817  0.0000E+00  0.0000E+00  0.0000E+00
    -27.526  0.0000E+00  0.0000E+00  0.0000E+00
    -27.235  0.0000E+00  0.0000E+00  0.0000E+00
    -26.944  0.0000E+00  0.0000E+00  0.0000E+00
    -26.653  0.0000E+00  0.0000E+00  0.0000E+00
    -26.361  0.0000E+00  0.0000E+00  0.0000E+00
    -26.070  0.0000E+00  0.0000E+00  0.0000E+00
    -25.779  0.0000E+00  0.0000E+00  0.0000E+00
    -25.488  0.0000E+00  0.0000E+00  0.0000E+00
    -25.196  0.0000E+00  0.0000E+00  0.0000E+00
    -24.905  0.0000E+00  0.0000E+00  0.0000E+00
    -24.614  0.0000E+00  0.0000E+00  0.0000E+00
    -24.323  0.0000E+00  0.0000E+00  0.0000E+00
    -24.032  0.0000E+00  0.0000E+00  0.0000E+00
    -23.740  0.0000E+00  0.0000E+00  0.0000E+00
    -23.449  0.0000E+00  0.0000E+00  0.0000E+00
    -23.158  0.0000E+00  0.0000E+00  0.0000E+00
    -22.867  0.0000E+00  0.0000E+00  0.0000E+00
    -22.576  0.0000E+00  0.0000E+00  0.0000E+00
    -22.284  0.0000E+00  0.0000E+00  0.0000E+00
    -21.993  0.0000E+00  0.0000E+00  0.0000E+00
    -21.702  0.0000E+00  0.0000E+00  0.0000E+00
    -21.411  0.0000E+00  0.0000E+00  0.0000E+00
    -21.119  0.0000E+00  0.0000E+00  0.0000E+00
    -20.828  0.0000E+00  0.0000E+00  0.0000E+00
    -20.537  0.0000E+00  0.0000E+00  0.0000E+00
    -20.246  0.0000E+00  0.0000E+00  0.0000E+00
    -19.955  0.0000E+00  0.0000E+00  0.0000E+00
    -19.663  0.0000E+00  0.0000E+00  0.0000E+00
    -19.372  0.0000E+00  0.0000E+00  0.0000E+00
    -19.081  0.0000E+00  0.0000E+00  0.0000E+00
    -18.790  0.0000E+00  0.0000E+00  0.0000E+00
    -18.498  0.0000E+00  0.0000E+00  0.0000E+00
    -18.207  0.0000E+00  0.0000E+00  0.0000E+00
    -17.916  0.0000E+00  0.0000E+00  0.0000E+00
    -17.625  0.0000E+00  0.0000E+00  0.0000E+00
    -17.334  0.0000E+00  0.0000E+00  0.0000E+00
    -17.042  0.0000E+00  0.0000E+00  0.0000E+00
    -16.751  0.0000E+00  0.0000E+00  0.0000E+00
    -16.460  0.0000E+00  0.0000E+00  0.0000E+00
    -16.169  0.0000E+00  0.0000E+00  0.0000E+00
    -15.878  0.0000E+00  0.0000E+00  0.0000E+00
    -15.586  0.0000E+00  0.0000E+00  0.0000E+00
    -15.295  0.0000E+00  0.0000E+00  0.0000E+00
    -15.004  0.0000E+00  0.0000E+00  0.0000E+00
    -14.713  0.0000E+00  0.0000E+00  0.0000E+00
    -14.421  0.0000E+00  0.0000E+00  0.0000E+00
    -14.130  0.0000E+00  0.0000E+00  0.0000E+00
    -13.839  0.0000E+00  0.0000E+00  0.0000E+00
    -13.548  0.0000E+00  0.0000E+00  0.0000E+00
    -13.257  0.0000E+00  0.0000E+00  0.0000E+00
    -12.965  0.1505E-18  0.2980E-19  0.3499E-20
    -12.674  0.9695E-09  0.2007E-09  0.2860E-10
    -12.383  0.2987E-05  0.6834E-06  0.1396E-06
    -12.092  0.1697E-05  0.4171E-06  0.1049E-06
    -11.800  0.3864E-06  0.9728E-07  0.3467E-07
    -11.509  0.9974E-05  0.2234E-05  0.6506E-06
    -11.218  0.2675E-06  0.5296E-07  0.1127E-07
    -10.927  0.2857E-13  0.5111E-14  0.7454E-15
    -10.636  0.0000E+00  0.0000E+00  0.0000E+00
    -10.344  0.6919E-08  0.6009E-09  0.7179E-11
    -10.053  0.9106E-03  0.7913E-04  0.9698E-06
     -9.762  0.1314E-01  0.1360E-02  0.1090E-03
     -9.471  0.5698E-02  0.6546E-03  0.8730E-04
     -9.180  0.1608E-01  0.2702E-02  0.8505E-03
     -8.888  0.1164E-01  0.1510E-02  0.3637E-03
     -8.597  0.6299E-02  0.1251E-02  0.9344E-03
     -8.306  0.5961E-01  0.5908E-02  0.3358E-02
     -8.015  0.1628E-01  0.4159E-02  0.4189E-02
     -7.723  0.2692E-01  0.4648E-02  0.2728E-02
     -7.432  0.2421E-01  0.8224E-02  0.1321E-01
     -7.141  0.5118E-01  0.7622E-02  0.1240E-01
     -6.850  0.6807E-01  0.7308E-02  0.2064E-01
     -6.559  0.4067E-01  0.8331E-02  0.2852E-01
     -6.267  0.6007E-01  0.2305E-01  0.8025E-01
     -5.976  0.7113E-01  0.1626E-01  0.1107E+00
     -5.685  0.8455E-01  0.2712E-01  0.2743E+00
     -5.394  0.7908E-01  0.2779E-01  0.3698E+00
     -5.103  0.7213E-01  0.2881E-01  0.8472E+00
     -4.811  0.2668E-01  0.2370E-01  0.1036E+01
     -4.520  0.1657E-01  0.2562E-01  0.1423E+01
     -4.229  0.1887E-01  0.1984E-01  0.1450E+01
     -3.938  0.2147E-01  0.2632E-01  0.2265E+01
     -3.646  0.4073E-01  0.5471E-01  0.4275E+01
     -3.355  0.2197E-01  0.4182E-01  0.3160E+01
     -3.064  0.2537E-01  0.5180E-01  0.3164E+01
     -2.773  0.2078E-01  0.2752E-01  0.4008E+01
     -2.482  0.2751E-01  0.2284E-01  0.4782E+01
     -2.190  0.1769E-01  0.1392E-01  0.2064E+01
     -1.899  0.2387E-01  0.1729E-01  0.4467E+00
     -1.608  0.3357E-01  0.3396E-01  0.2760E+00
     -1.317  0.1332E-01  0.1423E-01  0.9464E-01
     -1.025  0.3893E-01  0.3708E-01  0.1643E+00
     -0.734  0.4170E-01  0.3880E-01  0.1910E+00
     -0.443  0.2781E-01  0.5614E-01  0.1384E+00
     -0.152  0.1565E-01  0.5115E-01  0.8356E-01
      0.139  0.1532E-01  0.5572E-01  0.7430E-01
      0.431  0.1230E-01  0.4544E-01  0.8134E-01
      0.722  0.3682E-01  0.6131E-01  0.9754E-01
      1.013  0.2658E-01  0.6755E-01  0.9774E-01
      1.304  0.1297E-01  0.4547E-01  0.5150E-01
      1.595  0.2853E-01  0.7861E-01  0.1062E+00
      1.887  0.1453E-01  0.4882E-01  0.5931E-01
      2.178  0.7797E-02  0.4766E-01  0.4825E-01
      2.469  0.4249E-02  0.3946E-01  0.2751E-01
      2.760  0.6813E-02  0.3793E-01  0.2848E-01
      3.052  0.6621E-02  0.5124E-01  0.5304E-01
      3.343  0.1125E-01  0.2872E-01  0.3402E-01
      3.634  0.1075E-01  0.3263E-01  0.4392E-01
      3.925  0.3516E-01  0.3415E-01  0.4773E-01
      4.216  0.2691E-01  0.2890E-01  0.4479E-01
      4.508  0.2006E-01  0.3203E-01  0.4647E-01
      4.799  0.8678E-01  0.4611E-01  0.5963E-01
      5.090  0.1133E+00  0.4412E-01  0.7002E-01
      5.381  0.5299E-01  0.4732E-01  0.7510E-01
      5.673  0.4076E-01  0.6605E-01  0.7769E-01
      5.964  0.5039E-01  0.6366E-01  0.6742E-01
      6.255  0.6788E-01  0.5887E-01  0.5359E-01
      6.546  0.4483E-01  0.8817E-01  0.6394E-01
      6.837  0.3632E-01  0.6658E-01  0.6020E-01
      7.129  0.2743E-01  0.5400E-01  0.3858E-01
      7.420  0.5673E-01  0.6814E-01  0.4544E-01
      7.711  0.2948E-01  0.4671E-01  0.3666E-01
      8.002  0.3747E-02  0.1082E-01  0.8968E-02
      8.293  0.9942E-06  0.5416E-05  0.1028E-04
      8.585  0.6275E-15  0.8259E-14  0.1443E-13
      8.876  0.0000E+00  0.0000E+00  0.0000E+00
      9.167  0.0000E+00  0.0000E+00  0.0000E+00
      9.458  0.0000E+00  0.0000E+00  0.0000E+00
      9.750  0.0000E+00  0.0000E+00  0.0000E+00
     10.041  0.0000E+00  0.0000E+00  0.0000E+00
     10.332  0.0000E+00  0.0000E+00  0.0000E+00
     10.623  0.0000E+00  0.0000E+00  0.0000E+00
     10.914  0.0000E+00  0.0000E+00  0.0000E+00
     11.206  0.0000E+00  0.0000E+00  0.0000E+00
     11.497  0.0000E+00  0.0000E+00  0.0000E+00
     11.788  0.0000E+00  0.0000E+00  0.0000E+00
     11.78808650    -75.57704380  301     -0.88093204      1.00000000
    -75.577  0.0000E+00  0.0000E+00  0.0000E+00
    -75.286  0.0000E+00  0.0000E+00  0.0000E+00
    -74.995  0.0000E+00  0.0000E+00  0.0000E+00
    -74.703  0.0000E+00  0.0000E+00  0.0000E+00
    -74.412  0.0000E+00  0.0000E+00  0.0000E+00
    -74.121  0.0000E+00  0.0000E+00  0.0000E+00
    -73.830  0.0000E+00  0.0000E+00  0.0000E+00
    -73.539  0.0000E+00  0.0000E+00  0.0000E+00
    -73.247  0.0000E+00  0.0000E+00  0.0000E+00
    -72.956  0.0000E+00  0.0000E+00  0.0000E+00
    -72.665  0.0000E+00  0.0000E+00  0.0000E+00
    -72.374  0.0000E+00  0.0000E+00  0.0000E+00
    -72.082  0.7759E-21  0.9735E-19  0.5313E-19
    -71.791  0.6162E-12  0.7332E-10  0.3650E-10
    -71.500  0.2120E-09  0.3079E-07  0.1186E-07
    -71.209  0.5536E-08  0.1837E-04  0.3812E-07
    -70.918  0.9001E-05  0.8315E-01  0.1632E-04
    -70.626  0.2727E-04  0.1431E+02  0.5489E-04
    -70.335  0.1080E-04  0.6141E+01  0.1062E-04
    -70.044  0.6283E-09  0.2986E-03  0.1038E-08
    -69.753  0.1620E-17  0.6158E-14  0.7041E-16
    -69.461  0.0000E+00  0.0000E+00  0.0000E+00
    -69.170  0.0000E+00  0.0000E+00  0.0000E+00
    -68.879  0.0000E+00  0.0000E+00  0.0000E+00
    -68.588  0.0000E+00  0.0000E+00  0.0000E+00
    -68.297  0.0000E+00  0.0000E+00  0.0000E+00
    -68.005  0.0000E+00  0.0000E+00  0.0000E+00
    -67.714  0.0000E+00  0.0000E+00  0.0000E+00
    -67.423  0.0000E+00  0.0000E+00  0.0000E+00
    -67.132  0.0000E+00  0.0000E+00  0.0000E+00
    -66.841  0.0000E+00  0.0000E+00  0.0000E+00
    -66.549  0.0000E+00  0.0000E+00  0.0000E+00
    -66.258  0.0000E+00  0.0000E+00  0.0000E+00
    -65.967  0.0000E+00  0.0000E+00  0.0000E+00
    -65.676  0.0000E+00  0.0000E+00  0.0000E+00
    -65.384  0.0000E+00  0.0000E+00  0.0000E+00
    -65.093  0.0000E+00  0.0000E+00  0.0000E+00
    -64.802  0.0000E+00  0.0000E+00  0.0000E+00
    -64.511  0.0000E+00  0.0000E+00  0.0000E+00
    -64.220  0.0000E+00  0.0000E+00  0.0000E+00
    -63.928  0.0000E+00  0.0000E+00  0.0000E+00
    -63.637  0.0000E+00  0.0000E+00  0.0000E+00
    -63.346  0.0000E+00  0.0000E+00  0.0000E+00
    -63.055  0.0000E+00  0.0000E+00  0.0000E+00
    -62.763  0.0000E+00  0.0000E+00  0.0000E+00
    -62.472  0.0000E+00  0.0000E+00  0.0000E+00
    -62.181  0.0000E+00  0.0000E+00  0.0000E+00
    -61.890  0.0000E+00  0.0000E+00  0.0000E+00
    -61.599  0.0000E+00  0.0000E+00  0.0000E+00
    -61.307  0.0000E+00  0.0000E+00  0.0000E+00
    -61.016  0.0000E+00  0.0000E+00  0.0000E+00
    -60.725  0.0000E+00  0.0000E+00  0.0000E+00
    -60.434  0.0000E+00  0.0000E+00  0.0000E+00
    -60.143  0.0000E+00  0.0000E+00  0.0000E+00
    -59.851  0.0000E+00  0.0000E+00  0.0000E+00
    -59.560  0.0000E+00  0.0000E+00  0.0000E+00
    -59.269  0.0000E+00  0.0000E+00  0.0000E+00
    -58.978  0.0000E+00  0.0000E+00  0.0000E+00
    -58.686  0.0000E+00  0.0000E+00  0.0000E+00
    -58.395  0.0000E+00  0.0000E+00  0.0000E+00
    -58.104  0.0000E+00  0.0000E+00  0.0000E+00
    -57.813  0.0000E+00  0.0000E+00  0.0000E+00
    -57.522  0.0000E+00  0.0000E+00  0.0000E+00
    -57.230  0.0000E+00  0.0000E+00  0.0000E+00
    -56.939  0.0000E+00  0.0000E+00  0.0000E+00
    -56.648  0.0000E+00  0.0000E+00  0.0000E+00
    -56.357  0.0000E+00  0.0000E+00  0.0000E+00
    -56.065  0.0000E+00  0.0000E+00  0.0000E+00
    -55.774  0.0000E+00  0.0000E+00  0.0000E+00
    -55.483  0.0000E+00  0.0000E+00  0.0000E+00
    -55.192  0.0000E+00  0.0000E+00  0.0000E+00
    -54.901  0.0000E+00  0.0000E+00  0.0000E+00
    -54.609  0.0000E+00  0.0000E+00  0.0000E+00
    -54.318  0.0000E+00  0.0000E+00  0.0000E+00
    -54.027  0.0000E+00  0.0000E+00  0.0000E+00
    -53.736  0.0000E+00  0.0000E+00  0.0000E+00
    -53.445  0.0000E+00  0.0000E+00  0.0000E+00
    -53.153  0.0000E+00  0.0000E+00  0.0000E+00
    -52.862  0.0000E+00  0.0000E+00  0.0000E+00
    -52.571  0.0000E+00  0.0000E+00  0.0000E+00
    -52.280  0.0000E+00  0.0000E+00  0.0000E+00
    -51.988  0.0000E+00  0.0000E+00  0.0000E+00
    -51.697  0.0000E+00  0.0000E+00  0.0000E+00
    -51.406  0.0000E+00  0.0000E+00  0.0000E+00
    -51.115  0.0000E+00  0.0000E+00  0.0000E+00
    -50.824  0.0000E+00  0.0000E+00  0.0000E+00
    -50.532  0.0000E+00  0.0000E+00  0.0000E+00
    -50.241  0.0000E+00  0.0000E+00  0.0000E+00
    -49.950  0.0000E+00  0.0000E+00  0.0000E+00
    -49.659  0.0000E+00  0.0000E+00  0.0000E+00