   38   38  150    1
  0.3386168E+02  0.7529542E-09  0.7529542E-09  0.2620742E-08  0.5000000E-15
  1.000000000000000E-004
  CAR 
 unknown system                          
    620      7    372
 
  0.0000000E+00  0.0000000E+00  0.0000000E+00  0.6250000E-01
    1      -71.605039
    2      -71.590602
    3      -71.551490
    4      -71.420486
    5      -71.400040
    6      -71.318144
    7      -71.314314
    8      -71.305142
    9      -71.298720
   10      -71.273602
   11      -71.178857
   12      -71.162000
   13      -71.154696
   14      -71.134598
   15      -71.090678
   16      -71.083014
   17      -71.056111
   18      -71.013141
   19      -71.005178
   20      -71.001534
   21      -70.998888
   22      -70.994016
   23      -70.992565
   24      -70.984845
   25      -70.982959
   26      -70.981937
   27      -70.980252
   28      -70.979029
   29      -70.976984
   30      -70.976590
   31      -70.972372
   32      -70.956507
   33      -70.952916
   34      -70.943335
   35      -70.942634
   36      -70.938773
   37      -70.936601
   38      -70.936384
   39      -70.934897
   40      -70.933203
   41      -70.932922
   42      -70.928523
   43      -70.927006
   44      -70.926915
   45      -70.924360
   46      -70.921916
   47      -70.910260
   48      -70.909390
   49      -70.907517
   50      -70.907260
   51      -70.904903
   52      -70.900904
   53      -70.895446
   54      -70.893859
   55      -70.884688
   56      -70.881324
   57      -70.878817
   58      -70.863304
   59      -70.850706
   60      -70.844020
   61      -70.830851
   62      -70.828380
   63      -70.824231
   64      -70.803104
   65      -70.783232
   66      -70.781219
   67      -70.768755
   68      -70.768126
   69      -70.759096
   70      -70.756728
   71      -70.736045
   72      -70.734573
   73      -70.732893
   74      -70.730877
   75      -70.729997
   76      -70.728686
   77      -70.724654
   78      -70.724462
   79      -70.721142
   80      -70.720299
   81      -70.716094
   82      -70.713836
   83      -70.678070
   84      -70.674394
   85      -70.672873
   86      -70.667832
   87      -70.665844
   88      -70.664505
   89      -70.663439
   90      -70.651075
   91      -70.649086
   92      -70.624958
   93      -70.621273
   94      -70.618395
   95      -70.615994
   96      -70.612486
   97      -70.611786
   98      -70.609495
   99      -70.608780
  100      -70.607450
  101      -70.601080
  102      -70.555274
  103      -70.550228
  104      -70.548006
  105      -70.491159
  106      -70.484074
  107      -70.450167
  108      -70.449568
  109      -12.451848
  110      -11.606557
  111      -10.021619
  112       -8.508734
  113       -7.179224
  114       -7.140646
  115       -7.022960
  116       -7.001520
  117       -6.988427
  118       -6.944569
  119       -6.875993
  120       -6.657456
  121       -6.524270
  122       -6.345304
  123       -6.336397
  124       -6.224610
  125       -6.157556
  126       -6.035441
  127       -5.966038
  128       -5.792237
  129       -5.766042
  130       -5.727613
  131       -5.569610
  132       -5.451391
  133       -5.406340
  134       -5.319900
  135       -5.310313
  136       -5.302315
  137       -5.279609
  138       -5.196597
  139       -5.181388
  140       -5.146119
  141       -5.138420
  142       -5.136780
  143       -5.117170
  144       -5.070388
  145       -5.036330
  146       -4.995406
  147       -4.989209
  148       -4.981694
  149       -4.960741
  150       -4.958336
  151       -4.934345
  152       -4.932681
  153       -4.909300
  154       -4.903340
  155       -4.873876
  156       -4.864517
  157       -4.791750
  158       -4.753703
  159       -4.750039
  160       -4.732425
  161       -4.713001
  162       -4.708817
  163       -4.704892
  164       -4.634456
  165       -4.610795
  166       -4.589506
  167       -4.566425
  168       -4.492043
  169       -4.486535
  170       -4.413888
  171       -4.375742
  172       -4.351226
  173       -4.342211
  174       -4.293018
  175       -4.267181
  176       -4.236153
  177       -4.232985
  178       -4.214192
  179       -4.193501
  180       -4.153455
  181       -4.136276
  182       -4.134196
  183       -4.130036
  184       -4.111584
  185       -4.097699
  186       -4.066871
  187       -4.041053
  188       -4.029597
  189       -4.019282
  190       -4.011284
  191       -3.967169
  192       -3.965723
  193       -3.948819
  194       -3.945509
  195       -3.934036
  196       -3.904944
  197       -3.891522
  198       -3.862195
  199       -3.850944
  200       -3.815682
  201       -3.814807
  202       -3.785450
  203       -3.780156
  204       -3.761784
  205       -3.755173
  206       -3.745422
  207       -3.724011
  208       -3.718424
  209       -3.713422
  210       -3.710525
  211       -3.705015
  212       -3.702568
  213       -3.691940
  214       -3.681903
  215       -3.667259
  216       -3.661276
  217       -3.659940
  218       -3.643628
  219       -3.627705
  220       -3.587184
  221       -3.584842
  222       -3.549813
  223       -3.517736
  224       -3.512390
  225       -3.415631
  226       -3.369525
  227       -3.359305
  228       -3.350119
  229       -3.314185
  230       -3.294649
  231       -3.276592
  232       -3.272400
  233       -3.265894
  234       -3.262268
  235       -3.251962
  236       -3.232960
  237       -3.228677
  238       -3.224505
  239       -3.172288
  240       -3.150868
  241       -3.134359
  242       -3.114093
  243       -3.113772
  244       -3.102248
  245       -3.083802
  246       -3.062268
  247       -3.057201
  248       -3.044043
  249       -3.042246
  250       -3.028008
  251       -3.005398
  252       -2.982899
  253       -2.960020
  254       -2.951085
  255       -2.942467
  256       -2.938855
  257       -2.927167
  258       -2.890113
  259       -2.879733
  260       -2.839891
  261       -2.836889
  262       -2.834776
  263       -2.832506
  264       -2.801207
  265       -2.797271
  266       -2.787353
  267       -2.773914
  268       -2.766804
  269       -2.758225
  270       -2.754564
  271       -2.752270
  272       -2.739391
  273       -2.730222
  274       -2.712059
  275       -2.711242
  276       -2.688939
  277       -2.686046
  278       -2.672077
  279       -2.666778
  280       -2.661514
  281       -2.642813
  282       -2.638065
  283       -2.629767
  284       -2.617188
  285       -2.610095
  286       -2.609850
  287       -2.609398
  288       -2.600507
  289       -2.599595
  290       -2.596575
  291       -2.593051
  292       -2.587689
  293       -2.569135
  294       -2.568705
  295       -2.562825
  296       -2.544560
  297       -2.516877
  298       -2.515888
  299       -2.482130
  300       -2.480341
  301       -2.470697
  302       -2.462016
  303       -2.459578
  304       -2.438957
  305       -2.396735
  306       -1.816352
  307       -1.809009
  308       -1.728792
  309       -1.623049
  310       -1.581982
  311       -1.411966
  312       -1.164085
  313       -0.379662
  314       -0.276199
  315       -0.104949
  316        0.153376
  317        0.251369
  318        0.709528
  319        0.960955
  320        1.303229
  321        1.433054
  322        1.969017
  323        2.183101
  324        2.663610
  325        2.732443
  326        2.906763
  327        2.950490
  328        2.985435
  329        2.986157
  330        3.146987
  331        3.429678
  332        3.471871
  333        3.566087
  334        3.648306
  335        3.778268
  336        3.791415
  337        4.002138
  338        4.150594
  339        4.164165
  340        4.270967
  341        4.398000
  342        4.563018
  343        4.781805
  344        4.945229
  345        5.088061
  346        5.098952
  347        5.252093
  348        5.285617
  349        5.725911
  350        5.778781
  351        5.891164
  352        6.063428
  353        6.091188
  354        6.122505
  355        6.142976
  356        6.298966
  357        6.437668
  358        6.666220
  359        6.803464
  360        6.843412
  361        6.890033
  362        6.893078
  363        6.982446
  364        7.118272
  365        7.214383
  366        7.228852
  367        7.275358
  368        7.280395
  369        7.319212
  370        7.325496
  371        7.376092
  372        7.553528
 
  0.2500000E+00  0.5551115E-16  0.0000000E+00  0.2500000E+00
    1      -71.605358
    2      -71.589987
    3      -71.551328
    4      -71.420473
    5      -71.399778
    6      -71.317710
    7      -71.314546
    8      -71.304984
    9      -71.298500
   10      -71.273342
   11      -71.179594
   12      -71.161930
   13      -71.153391
   14      -71.134419
   15      -71.091285
   16      -71.081175
   17      -71.057136
   18      -71.016058
   19      -71.013019
   20      -71.004606
   21      -71.001775
   22      -70.998997
   23      -70.991322
   24      -70.987682
   25      -70.983379
   26      -70.978353
   27      -70.976299
   28      -70.974099
   29      -70.969669
   30      -70.965672
   31      -70.961132
   32      -70.955988
   33      -70.953443
   34      -70.946968
   35      -70.942955
   36      -70.939392
   37      -70.938434
   38      -70.937402
   39      -70.935538
   40      -70.933768
   41      -70.932741
   42      -70.930514
   43      -70.928065
   44      -70.927808
   45      -70.926198
   46      -70.919202
   47      -70.914733
   48      -70.911964
   49      -70.909412
   50      -70.908523
   51      -70.903497
   52      -70.899030
   53      -70.894807
   54      -70.892741
   55      -70.883291
   56      -70.879259
   57      -70.875121
   58      -70.863302
   59      -70.852401
   60      -70.842306
   61      -70.831894
   62      -70.828158
   63      -70.825386
   64      -70.800576
   65      -70.782748
   66      -70.780930
   67      -70.769620
   68      -70.768016
   69      -70.759423
   70      -70.756395
   71      -70.746866
   72      -70.740019
   73      -70.736387
   74      -70.735153
   75      -70.733245
   76      -70.732143
   77      -70.729112
   78      -70.719021
   79      -70.711962
   80      -70.708619
   81      -70.703056
   82      -70.699940
   83      -70.681561
   84      -70.676812
   85      -70.675794
   86      -70.670204
   87      -70.666457
   88      -70.664332
   89      -70.660815
   90      -70.656482
   91      -70.650672
   92      -70.624437
   93      -70.621490
   94      -70.618080
   95      -70.615525
   96      -70.613253
   97      -70.611341
   98      -70.609272
   99      -70.608715
  100      -70.607344
  101      -70.601019
  102      -70.555167
  103      -70.550129
  104      -70.547877
  105      -70.491015
  106      -70.483921
  107      -70.450074
  108      -70.449456
  109      -12.419854
  110      -11.636982
  111       -9.803461
  112       -8.362001
  113       -8.138030
  114       -7.463785
  115       -7.418871
  116       -7.072632
  117       -6.969846
  118       -6.611551
  119       -6.498497
  120       -6.385158
  121       -6.360179
  122       -6.286210
  123       -6.165066
  124       -6.096294
  125       -6.023154
  126       -5.979239
  127       -5.901143
  128       -5.783673
  129       -5.764719
  130       -5.694240
  131       -5.543829
  132       -5.469055
  133       -5.398230
  134       -5.373887
  135       -5.335589
  136       -5.299545
  137       -5.275543
  138       -5.266801
  139       -5.244131
  140       -5.232359
  141       -5.221134
  142       -5.194591
  143       -5.175900
  144       -5.140350
  145       -5.124708
  146       -5.079742
  147       -5.055065
  148       -5.046693
  149       -5.010442
  150       -4.987365
  151       -4.954338
  152       -4.924798
  153       -4.907727
  154       -4.863995
  155       -4.836194
  156       -4.791315
  157       -4.782591
  158       -4.753119
  159       -4.732288
  160       -4.712856
  161       -4.682236
  162       -4.655986
  163       -4.613891
  164       -4.595866
  165       -4.583145
  166       -4.547355
  167       -4.508819
  168       -4.479275
  169       -4.467265
  170       -4.445162
  171       -4.432090
  172       -4.408047
  173       -4.381375
  174       -4.348892
  175       -4.329005
  176       -4.302051
  177       -4.262222
  178       -4.228315
  179       -4.218646
  180       -4.195207
  181       -4.185475
  182       -4.161225
  183       -4.144971
  184       -4.126912
  185       -4.099482
  186       -4.089815
  187       -4.052417
  188       -4.038784
  189       -4.022255
  190       -4.013355
  191       -3.979026
  192       -3.968146
  193       -3.960712
  194       -3.947339
  195       -3.924295
  196       -3.909220
  197       -3.893519
  198       -3.885094
  199       -3.878909
  200       -3.840285
  201       -3.835441
  202       -3.822949
  203       -3.815684
  204       -3.801476
  205       -3.796294
  206       -3.779721
  207       -3.764353
  208       -3.753387
  209       -3.748174
  210       -3.739943
  211       -3.734640
  212       -3.722065
  213       -3.698217
  214       -3.682246
  215       -3.671979
  216       -3.639253
  217       -3.632618
  218       -3.606112
  219       -3.601582
  220       -3.592430
  221       -3.589863
  222       -3.581080
  223       -3.570913
  224       -3.534964
  225       -3.527483
  226       -3.510213
  227       -3.462042
  228       -3.436059
  229       -3.397075
  230       -3.377247
  231       -3.365846
  232       -3.355215
  233       -3.333774
  234       -3.308047
  235       -3.276686
  236       -3.269905
  237       -3.248015
  238       -3.220882
  239       -3.206645
  240       -3.201446
  241       -3.175455
  242       -3.157284
  243       -3.143580
  244       -3.132973
  245       -3.108608
  246       -3.083605
  247       -3.080069
  248       -3.062478
  249       -3.048590
  250       -3.025604
  251       -3.021301
  252       -3.012746
  253       -3.002244
  254       -2.988858
  255       -2.970956
  256       -2.955243
  257       -2.945631
  258       -2.928287
  259       -2.911151
  260       -2.875267
  261       -2.874066
  262       -2.867602
  263       -2.842639
  264       -2.829554
  265       -2.818267
  266       -2.800991
  267       -2.788116
  268       -2.777454
  269       -2.754830
  270       -2.744629
  271       -2.729963
  272       -2.706891
  273       -2.697138
  274       -2.681165
  275       -2.676270
  276       -2.659678
  277       -2.647444
  278       -2.638212
  279       -2.626296
  280       -2.614687
  281       -2.599841
  282       -2.591217
  283       -2.568656
  284       -2.563033
  285       -2.554377
  286       -2.540686
  287       -2.534170
  288       -2.528090
  289       -2.516303
  290       -2.507380
  291       -2.498356
  292       -2.483794
  293       -2.479045
  294       -2.470310
  295       -2.451155
  296       -2.438637
  297       -2.415309
  298       -2.403276
  299       -2.311375
  300       -2.274101
  301       -2.208536
  302       -2.153162
  303       -2.112411
  304       -1.970433
  305       -1.930084
  306       -1.784382
  307       -1.688092
  308       -1.524030
  309       -1.260327
  310       -1.147490
  311       -0.999481
  312       -0.859203
  313       -0.549525
  314       -0.336972
  315       -0.101010
  316        0.174913
  317        0.298588
  318        0.666199
  319        0.752528
  320        0.858705
  321        1.081304
  322        1.334954
  323        1.478285
  324        1.600636
  325        1.893224
  326        2.092483
  327        2.381396
  328        2.565743
  329        2.810599
  330        2.993911
  331        3.227138
  332        3.429012
  333        3.483204
  334        3.747434
  335        3.798867
  336        3.926100
  337        4.090504
  338        4.350967
  339        4.424023
  340        4.577459
  341        4.704318
  342        4.843110
  343        4.934139
  344        4.985955
  345        5.064042
  346        5.273707
  347        5.361754
  348        5.483821
  349        5.553554
  350        5.612558
  351        5.724636
  352        5.776487
  353        5.916682
  354        6.059072
  355        6.106011
  356        6.216936
  357        6.297336
  358        6.351613
  359        6.392976
  360        6.435740
  361        6.530177
  362        6.570397
  363        6.688844
  364        6.822585
  365        6.948774
  366        7.112270
  367        7.186079
  368        7.264205
  369        7.339224
  370        7.383502
  371        7.459219
  372        7.657830
 
  0.5000000E+00  0.1110223E-15  0.0000000E+00  0.1250000E+00
    1      -71.605871
    2      -71.589540
    3      -71.551501
    4      -71.420686
    5      -71.399808
    6      -71.317441
    7      -71.315049
    8      -71.305082
    9      -71.298425
   10      -71.273350
   11      -71.180523
   12      -71.161893
   13      -71.152433
   14      -71.134547
   15      -71.091852
   16      -71.079359
   17      -71.058639
   18      -71.021525
   19      -71.012998
   20      -71.008653
   21      -71.004466
   22      -71.002722
   23      -70.995296
   24      -70.985912
   25      -70.981667
   26      -70.976413
   27      -70.974081
   28      -70.969727
   29      -70.958400
   30      -70.957575
   31      -70.955967
   32      -70.954858
   33      -70.953263
   34      -70.945813
   35      -70.943062
   36      -70.941330
   37      -70.939454
   38      -70.938935
   39      -70.938388
   40      -70.934575
   41      -70.933820
   42      -70.932909
   43      -70.929924
   44      -70.928826
   45      -70.926894
   46      -70.925003
   47      -70.915218
   48      -70.913133
   49      -70.912533
   50      -70.909768
   51      -70.903932
   52      -70.897690
   53      -70.893971
   54      -70.892010
   55      -70.883171
   56      -70.876425
   57      -70.870066
   58      -70.863725
   59      -70.855177
   60      -70.840967
   61      -70.833430
   62      -70.827992
   63      -70.826830
   64      -70.798278
   65      -70.782763
   66      -70.780350
   67      -70.770932
   68      -70.768030
   69      -70.760096
   70      -70.756276
   71      -70.752754
   72      -70.743813
   73      -70.738961
   74      -70.737335
   75      -70.736111
   76      -70.734403
   77      -70.732988
   78      -70.713170
   79      -70.705350
   80      -70.694766
   81      -70.692012
   82      -70.689668
   83      -70.686467
   84      -70.680868
   85      -70.676900
   86      -70.676034
   87      -70.668645
   88      -70.667142
   89      -70.664433
   90      -70.656005
   91      -70.654874
   92      -70.624123
   93      -70.621795
   94      -70.618010
   95      -70.615075
   96      -70.614049
   97      -70.611050
   98      -70.609252
   99      -70.608365
  100      -70.607193
  101      -70.600916
  102      -70.555097
  103      -70.550291
  104      -70.548147
  105      -70.491202
  106      -70.483985
  107      -70.450037
  108      -70.449369
  109      -12.385219
  110      -11.669929
  111       -9.206027
  112       -9.120586
  113       -7.954629
  114       -7.750291
  115       -7.568240
  116       -7.492116
  117       -6.894788
  118       -6.550785
  119       -6.400049
  120       -6.367932
  121       -6.127760
  122       -6.038890
  123       -5.939686
  124       -5.880571
  125       -5.822247
  126       -5.795224
  127       -5.750371
  128       -5.726986
  129       -5.711173
  130       -5.690237
  131       -5.632383
  132       -5.584627
  133       -5.551520
  134       -5.529673
  135       -5.484115
  136       -5.470396
  137       -5.385791
  138       -5.362682
  139       -5.349280
  140       -5.304665
  141       -5.234230
  142       -5.216953
  143       -5.149966
  144       -5.142993
  145       -5.133021
  146       -5.111938
  147       -5.098649
  148       -5.073800
  149       -5.021863
  150       -5.015244
  151       -4.973952
  152       -4.888732
  153       -4.868144
  154       -4.832224
  155       -4.810698
  156       -4.801429
  157       -4.780812
  158       -4.723708
  159       -4.714677
  160       -4.680616
  161       -4.673574
  162       -4.659607
  163       -4.634594
  164       -4.578787
  165       -4.578007
  166       -4.521834
  167       -4.489489
  168       -4.463860
  169       -4.454707
  170       -4.433308
  171       -4.408224
  172       -4.401380
  173       -4.375327
  174       -4.340986
  175       -4.336166
  176       -4.326259
  177       -4.306279
  178       -4.265097
  179       -4.226678
  180       -4.208577
  181       -4.194724
  182       -4.177279
  183       -4.158019
  184       -4.138374
  185       -4.121912
  186       -4.113910
  187       -4.108362
  188       -4.103736
  189       -4.085815
  190       -4.077361
  191       -4.070513
  192       -4.028840
  193       -4.011891
  194       -3.995206
  195       -3.988749
  196       -3.969780
  197       -3.950521
  198       -3.915397
  199       -3.895658
  200       -3.880015
  201       -3.874406
  202       -3.863282
  203       -3.836545
  204       -3.819044
  205       -3.799471
  206       -3.783298
  207       -3.766333
  208       -3.755489
  209       -3.728730
  210       -3.720385
  211       -3.710649
  212       -3.702354
  213       -3.693739
  214       -3.666664
  215       -3.663326
  216       -3.657423
  217       -3.624649
  218       -3.615812
  219       -3.611158
  220       -3.598125
  221       -3.583906
  222       -3.574566
  223       -3.547421
  224       -3.513077
  225       -3.493803
  226       -3.475241
  227       -3.450905
  228       -3.439436
  229       -3.408751
  230       -3.396141
  231       -3.383148
  232       -3.376907
  233       -3.363146
  234       -3.350615
  235       -3.336210
  236       -3.327451
  237       -3.311839
  238       -3.296894
  239       -3.283738
  240       -3.265924
  241       -3.227125
  242       -3.216824
  243       -3.194643
  244       -3.165666
  245       -3.141422
  246       -3.122181
  247       -3.093954
  248       -3.087298
  249       -3.076617
  250       -3.062764
  251       -3.046850
  252       -3.040755
  253       -3.031121
  254       -3.003227
  255       -2.977812
  256       -2.951209
  257       -2.933329
  258       -2.925552
  259       -2.919365
  260       -2.896771
  261       -2.880095
  262       -2.865576
  263       -2.855372
  264       -2.848272
  265       -2.840855
  266       -2.825693
  267       -2.804383
  268       -2.783364
  269       -2.761768
  270       -2.733666
  271       -2.714455
  272       -2.702223
  273       -2.695092
  274       -2.685462
  275       -2.661802
  276       -2.649371
  277       -2.628401
  278       -2.619207
  279       -2.612720
  280       -2.581241
  281       -2.569246
  282       -2.557714
  283       -2.549331
  284       -2.543613
  285       -2.530874
  286       -2.519027
  287       -2.507662
  288       -2.488070
  289       -2.482542
  290       -2.473027
  291       -2.458498
  292       -2.455176
  293       -2.421801
  294       -2.398880
  295       -2.385573
  296       -2.374073
  297       -2.372843
  298       -2.337611
  299       -2.215619
  300       -2.006470
  301       -1.918171
  302       -1.780136
  303       -1.680044
  304       -1.563135
  305       -1.347280
  306       -1.233367
  307       -1.000370
  308       -0.988863
  309       -0.856678
  310       -0.836175
  311       -0.675440
  312       -0.581793
  313       -0.529825
  314       -0.395255
  315       -0.121118
  316       -0.060475
  317        0.007766
  318        0.108740
  319        0.367630
  320        0.569824
  321        0.638372
  322        0.682096
  323        0.911440
  324        1.092670
  325        1.364739
  326        1.686178
  327        1.912846
  328        2.366063
  329        2.473559
  330        2.760978
  331        2.925566
  332        2.988538
  333        3.594645
  334        3.612402
  335        3.850253
  336        4.149295
  337        4.210096
  338        4.318216
  339        4.345712
  340        4.457012
  341        4.559984
  342        4.586472
  343        4.658805
  344        4.835821
  345        5.003006
  346        5.227422
  347        5.293125
  348        5.295942
  349        5.359172
  350        5.496540
  351        5.601879
  352        5.710377
  353        5.806564
  354        5.936494
  355        6.037730
  356        6.148996
  357        6.266135
  358        6.347787
  359        6.565102
  360        6.637978
  361        6.663908
  362        6.784348
  363        6.841540
  364        6.932124
  365        6.942474
  366        7.024233
  367        7.087667
  368        7.140382
  369        7.166434
  370        7.379363
  371        7.699999
  372        7.800952
 
  0.2500000E+00  0.2500000E+00  0.0000000E+00  0.1250000E+00
    1      -71.604921
    2      -71.590460
    3      -71.551281
    4      -71.420287
    5      -71.399903
    6      -71.318135
    7      -71.314230
    8      -71.304993
    9      -71.298567
   10      -71.273307
   11      -71.178709
   12      -71.161882
   13      -71.154555
   14      -71.134388
   15      -71.090539
   16      -71.082920
   17      -71.055871
   18      -71.013034
   19      -71.010269
   20      -71.006020
   21      -71.004953
   22      -70.999954
   23      -70.997808
   24      -70.985809
   25      -70.979115
   26      -70.978830
   27      -70.975874
   28      -70.975537
   29      -70.967790
   30      -70.965131
   31      -70.961570
   32      -70.956615
   33      -70.953042
   34      -70.944101
   35      -70.943651
   36      -70.940366
   37      -70.939094
   38      -70.936862
   39      -70.936050
   40      -70.933792
   41      -70.932825
   42      -70.931943
   43      -70.928206
   44      -70.925847
   45      -70.924568
   46      -70.921611
   47      -70.913817
   48      -70.912800
   49      -70.909987
   50      -70.908041
   51      -70.902839
   52      -70.901418
   53      -70.893415
   54      -70.893066
   55      -70.883396
   56      -70.878502
   57      -70.875056
   58      -70.863546
   59      -70.853583
   60      -70.841774
   61      -70.832793
   62      -70.828085
   63      -70.823314
   64      -70.800669
   65      -70.783998
   66      -70.780111
   67      -70.768744
   68      -70.768368
   69      -70.759769
   70      -70.756602
   71      -70.743626
   72      -70.739301
   73      -70.737277
   74      -70.736670
   75      -70.735197
   76      -70.732306
   77      -70.730711
   78      -70.717880
   79      -70.713400
   80      -70.707528
   81      -70.701875
   82      -70.700272
   83      -70.680943
   84      -70.678253
   85      -70.672488
   86      -70.670909
   87      -70.665536
   88      -70.664253
   89      -70.663290
   90      -70.655096
   91      -70.651814
   92      -70.624550
   93      -70.621232
   94      -70.617957
   95      -70.615897
   96      -70.612347
   97      -70.612282
   98      -70.608848
   99      -70.608766
  100      -70.607438
  101      -70.601033
  102      -70.555161
  103      -70.550158
  104      -70.548080
  105      -70.490930
  106      -70.483971
  107      -70.450088
  108      -70.449442
  109      -12.405844
  110      -11.665050
  111       -9.797396
  112       -8.317384
  113       -8.131405
  114       -7.516073
  115       -7.406252
  116       -7.084736
  117       -6.791356
  118       -6.740380
  119       -6.526669
  120       -6.419478
  121       -6.370464
  122       -6.276415
  123       -6.185499
  124       -6.084235
  125       -6.060784
  126       -6.009861
  127       -5.832041
  128       -5.781110
  129       -5.774817
  130       -5.668742
  131       -5.599868
  132       -5.434316
  133       -5.392398
  134       -5.383462
  135       -5.343000
  136       -5.306936
  137       -5.266672
  138       -5.261079
  139       -5.250050
  140       -5.240635
  141       -5.203332
  142       -5.176482
  143       -5.163688
  144       -5.156407
  145       -5.101920
  146       -5.095143
  147       -5.046950
  148       -5.013122
  149       -5.003482
  150       -4.961203
  151       -4.945584
  152       -4.919870
  153       -4.868634
  154       -4.867692
  155       -4.818475
  156       -4.813133
  157       -4.785426
  158       -4.768961
  159       -4.746093
  160       -4.723048
  161       -4.693375
  162       -4.642563
  163       -4.637573
  164       -4.602815
  165       -4.589005
  166       -4.553259
  167       -4.502346
  168       -4.497890
  169       -4.468299
  170       -4.459114
  171       -4.410170
  172       -4.405294
  173       -4.363955
  174       -4.340727
  175       -4.340613
  176       -4.298132
  177       -4.260569
  178       -4.251922
  179       -4.220634
  180       -4.218266
  181       -4.181857
  182       -4.162029
  183       -4.150279
  184       -4.125774
  185       -4.106874
  186       -4.077454
  187       -4.071356
  188       -4.037464
  189       -4.011464
  190       -3.995116
  191       -3.977711
  192       -3.958999
  193       -3.958779
  194       -3.941087
  195       -3.912319
  196       -3.910447
  197       -3.887607
  198       -3.877255
  199       -3.857224
  200       -3.851911
  201       -3.829847
  202       -3.824129
  203       -3.812750
  204       -3.810223
  205       -3.789203
  206       -3.776518
  207       -3.768260
  208       -3.761316
  209       -3.748307
  210       -3.739897
  211       -3.734357
  212       -3.710263
  213       -3.708299
  214       -3.697105
  215       -3.679828
  216       -3.645288
  217       -3.628906
  218       -3.608872
  219       -3.605168
  220       -3.592833
  221       -3.589436
  222       -3.585938
  223       -3.579857
  224       -3.544781
  225       -3.528111
  226       -3.510377
  227       -3.477118