PROCAR new format
# of k-points:    7         # of bands: 372         # of ions:  38

 k-point    1 :    0.00000000 0.00000000 0.00000000     weight = 0.06250000

band   1 # energy  -71.60503916 # occ.  2.00000000
 
ion      s      p      d    tot
  1  0.000  0.000  0.000  0.000
  2  0.000  0.000  0.000  0.000
  3  0.000  0.000  0.000  0.000
  4  0.000  0.000  0.000  0.000
  5  0.000  0.000  0.000  0.000
  6  0.000  0.000  0.000  0.000
  7  0.000  0.000  0.000  0.000
  8  0.000  0.000  0.000  0.000
  9  0.000  0.000  0.000  0.000
 10  0.000  0.000  0.000  0.000
 11  0.000  0.000  0.000  0.000
 12  0.000  0.000  0.000  0.000
 13  0.000  0.000  0.000  0.000
 14  0.000  0.000  0.000  0.000
 15  0.000  0.000  0.000  0.000
 16  0.000  0.000  0.000  0.000
 17  0.000  0.000  0.000  0.000
 18  0.000  0.000  0.000  0.000
 19  0.000  0.000  0.000  0.000
 20  0.000  0.000  0.000  0.000
 21  0.000  0.000  0.000  0.000
 22  0.000  0.000  0.000  0.000
 23  0.000  0.000  0.000  0.000
 24  0.000  0.000  0.000  0.000
 25  0.000  0.000  0.000  0.000
 26  0.000  0.000  0.000  0.000
 27  0.000  0.000  0.000  0.000
 28  0.000  0.104  0.000  0.104
 29  0.000  0.000  0.000  0.000
 30  0.000  0.445  0.000  0.445
 31  0.000  0.000  0.000  0.000
 32  0.000  0.000  0.000  0.000
 33  0.000  0.000  0.000  0.000
 34  0.000  0.445  0.000  0.445
 35  0.000  0.000  0.000  0.000
 36  0.000  0.001  0.000  0.001
 37  0.000  0.000  0.000  0.000
 38  0.000  0.000  0.000  0.000
tot  0.000  0.996  0.000  0.996
 
band   2 # energy  -71.59060209 # occ.  2.00000000
 
ion      s      p      d    tot
  1  0.000  0.000  0.000  0.000
  2  0.000  0.000  0.000  0.000
  3  0.000  0.000  0.000  0.000
  4  0.000  0.000  0.000  0.000
  5  0.000  0.000  0.000  0.000
  6  0.000  0.000  0.000  0.000
  7  0.000  0.000  0.000  0.000
  8  0.000  0.000  0.000  0.000
  9  0.000  0.000  0.000  0.000
 10  0.000  0.000  0.000  0.000
 11  0.000  0.000  0.000  0.000
 12  0.000  0.000  0.000  0.000
 13  0.000  0.000  0.000  0.000
 14  0.000  0.000  0.000  0.000
 15  0.000  0.000  0.000  0.000
 16  0.000  0.000  0.000  0.000
 17  0.000  0.000  0.000  0.000
 18  0.000  0.000  0.000  0.000
 19  0.000  0.000  0.000  0.000
 20  0.000  0.000  0.000  0.000
 21  0.000  0.000  0.000  0.000
 22  0.000  0.000  0.000  0.000
 23  0.000  0.000  0.000  0.000
 24  0.000  0.000  0.000  0.000
 25  0.000  0.000  0.000  0.000
 26  0.000  0.000  0.000  0.000
 27  0.000  0.000  0.000  0.000
 28  0.000  0.001  0.000  0.001
 29  0.000  0.000  0.000  0.000
 30  0.000  0.496  0.000  0.496
 31  0.000  0.000  0.000  0.000
 32  0.000  0.001  0.000  0.001
 33  0.000  0.000  0.000  0.000
 34  0.000  0.496  0.000  0.496
 35  0.000  0.000  0.000  0.000
 36  0.000  0.000  0.000  0.000
 37  0.000  0.000  0.000  0.000
 38  0.000  0.000  0.000  0.000
tot  0.000  0.997  0.000  0.997
 
band   3 # energy  -71.55148965 # occ.  2.00000000
 
ion      s      p      d    tot
  1  0.000  0.000  0.000  0.000
  2  0.000  0.000  0.000  0.000
  3  0.000  0.000  0.000  0.000
  4  0.000  0.000  0.000  0.000
  5  0.000  0.000  0.000  0.000
  6  0.000  0.000  0.000  0.000
  7  0.000  0.000  0.000  0.000
  8  0.000  0.000  0.000  0.000
  9  0.000  0.000  0.000  0.000
 10  0.000  0.000  0.000  0.000
 11  0.000  0.000  0.000  0.000
 12  0.000  0.000  0.000  0.000
 13  0.000  0.000  0.000  0.000
 14  0.000  0.000  0.000  0.000
 15  0.000  0.000  0.000  0.000
 16  0.000  0.000  0.000  0.000
 17  0.000  0.000  0.000  0.000
 18  0.000  0.000  0.000  0.000
 19  0.000  0.000  0.000  0.000
 20  0.000  0.000  0.000  0.000
 21  0.000  0.000  0.000  0.000
 22  0.000  0.000  0.000  0.000
 23  0.000  0.000  0.000  0.000
 24  0.000  0.000  0.000  0.000
 25  0.000  0.000  0.000  0.000
 26  0.000  0.000  0.000  0.000
 27  0.000  0.000  0.000  0.000
 28  0.000  0.890  0.000  0.890
 29  0.000  0.000  0.000  0.000
 30  0.000  0.053  0.000  0.053
 31  0.000  0.000  0.000  0.000
 32  0.000  0.000  0.000  0.000
 33  0.000  0.000  0.000  0.000
 34  0.000  0.053  0.000  0.053
 35  0.000  0.000  0.000  0.000
 36  0.000  0.000  0.000  0.000
 37  0.000  0.000  0.000  0.000
 38  0.000  0.000  0.000  0.000
tot  0.000  0.997  0.000  0.997
 
band   4 # energy  -71.42048579 # occ.  2.00000000
 
ion      s      p      d    tot
  1  0.000  0.000  0.000  0.000
  2  0.000  0.000  0.000  0.000
  3  0.000  0.000  0.000  0.000
  4  0.000  0.000  0.000  0.000
  5  0.000  0.000  0.000  0.000
  6  0.000  0.000  0.000  0.000
  7  0.000  0.000  0.000  0.000
  8  0.000  0.000  0.000  0.000
  9  0.000  0.000  0.000  0.000
 10  0.000  0.000  0.000  0.000
 11  0.000  0.000  0.000  0.000
 12  0.000  0.000  0.000  0.000
 13  0.000  0.000  0.000  0.000
 14  0.000  0.000  0.000  0.000
 15  0.000  0.000  0.000  0.000
 16  0.000  0.000  0.000  0.000
 17  0.000  0.000  0.000  0.000
 18  0.000  0.000  0.000  0.000
 19  0.000  0.000  0.000  0.000
 20  0.000  0.000  0.000  0.000
 21  0.000  0.000  0.000  0.000
 22  0.000  0.000  0.000  0.000
 23  0.000  0.000  0.000  0.000
 24  0.000  0.000  0.000  0.000
 25  0.000  0.000  0.000  0.000
 26  0.000  0.000  0.000  0.000
 27  0.000  0.000  0.000  0.000
 28  0.000  0.000  0.000  0.000
 29  0.000  0.473  0.000  0.473
 30  0.000  0.024  0.000  0.024
 31  0.000  0.473  0.000  0.473
 32  0.000  0.000  0.000  0.000
 33  0.000  0.000  0.000  0.000
 34  0.000  0.024  0.000  0.024
 35  0.000  0.000  0.000  0.000
 36  0.000  0.000  0.000  0.000
 37  0.000  0.000  0.000  0.000
 38  0.000  0.000  0.000  0.000
tot  0.000  0.996  0.000  0.996
 
band   5 # energy  -71.40004046 # occ.  2.00000000
 
ion      s      p      d    tot
  1  0.000  0.000  0.000  0.000
  2  0.000  0.000  0.000  0.000
  3  0.000  0.000  0.000  0.000
  4  0.000  0.000  0.000  0.000
  5  0.000  0.000  0.000  0.000
  6  0.000  0.000  0.000  0.000
  7  0.000  0.000  0.000  0.000
  8  0.000  0.000  0.000  0.000
  9  0.000  0.000  0.000  0.000
 10  0.000  0.000  0.000  0.000
 11  0.000  0.000  0.000  0.000
 12  0.000  0.000  0.000  0.000
 13  0.000  0.000  0.000  0.000
 14  0.000  0.000  0.000  0.000
 15  0.000  0.000  0.000  0.000
 16  0.000  0.000  0.000  0.000
 17  0.000  0.000  0.000  0.000
 18  0.000  0.000  0.000  0.000
 19  0.000  0.000  0.000  0.000
 20  0.000  0.000  0.000  0.000
 21  0.000  0.000  0.000  0.000
 22  0.000  0.000  0.000  0.000
 23  0.000  0.000  0.000  0.000
 24  0.000  0.000  0.000  0.000
 25  0.000  0.000  0.000  0.000
 26  0.000  0.000  0.000  0.000
 27  0.000  0.000  0.000  0.000
 28  0.000  0.000  0.000  0.000
 29  0.000  0.461  0.000  0.461
 30  0.000  0.036  0.000  0.036
 31  0.000  0.461  0.000  0.461
 32  0.000  0.000  0.000  0.000
 33  0.000  0.000  0.000  0.000
 34  0.000  0.036  0.000  0.036
 35  0.000  0.000  0.000  0.000
 36  0.000  0.001  0.000  0.001
 37  0.000  0.000  0.000  0.000
 38  0.000  0.000  0.000  0.000
tot  0.000  0.996  0.000  0.996
 
band   6 # energy  -71.31814354 # occ.  2.00000000
 
ion      s      p      d    tot
  1  0.000  0.000  0.000  0.000
  2  0.000  0.000  0.000  0.000
  3  0.000  0.000  0.000  0.000
  4  0.000  0.000  0.000  0.000
  5  0.000  0.000  0.000  0.000
  6  0.000  0.000  0.000  0.000
  7  0.000  0.000  0.000  0.000
  8  0.000  0.000  0.000  0.000
  9  0.000  0.000  0.000  0.000
 10  0.000  0.000  0.000  0.000
 11  0.000  0.000  0.000  0.000
 12  0.000  0.000  0.000  0.000
 13  0.000  0.000  0.000  0.000
 14  0.000  0.000  0.000  0.000
 15  0.000  0.000  0.000  0.000
 16  0.000  0.000  0.000  0.000
 17  0.000  0.000  0.000  0.000
 18  0.000  0.000  0.000  0.000
 19  0.000  0.000  0.000  0.000
 20  0.000  0.000  0.000  0.000
 21  0.000  0.000  0.000  0.000
 22  0.000  0.000  0.000  0.000
 23  0.000  0.000  0.000  0.000
 24  0.000  0.001  0.000  0.001
 25  0.000  0.000  0.000  0.000
 26  0.000  0.001  0.000  0.001
 27  0.000  0.000  0.000  0.000
 28  0.000  0.014  0.000  0.014
 29  0.000  0.015  0.000  0.015
 30  0.000  0.450  0.000  0.450
 31  0.000  0.015  0.000  0.015
 32  0.000  0.000  0.000  0.000
 33  0.000  0.000  0.000  0.000
 34  0.000  0.450  0.000  0.450
 35  0.000  0.000  0.000  0.000
 36  0.000  0.049  0.000  0.049
 37  0.000  0.000  0.000  0.000
 38  0.000  0.000  0.000  0.000
tot  0.000  0.996  0.000  0.997
 
band   7 # energy  -71.31431403 # occ.  2.00000000
 
ion      s      p      d    tot
  1  0.000  0.000  0.000  0.000
  2  0.000  0.000  0.000  0.000
  3  0.000  0.000  0.000  0.000
  4  0.000  0.000  0.000  0.000
  5  0.000  0.000  0.000  0.000
  6  0.000  0.000  0.000  0.000
  7  0.000  0.000  0.000  0.000
  8  0.000  0.000  0.000  0.000
  9  0.000  0.000  0.000  0.000
 10  0.000  0.000  0.000  0.000
 11  0.000  0.000  0.000  0.000
 12  0.000  0.000  0.000  0.000
 13  0.000  0.000  0.000  0.000
 14  0.000  0.000  0.000  0.000
 15  0.000  0.000  0.000  0.000
 16  0.000  0.000  0.000  0.000
 17  0.000  0.000  0.000  0.000
 18  0.000  0.000  0.000  0.000
 19  0.000  0.000  0.000  0.000
 20  0.000  0.000  0.000  0.000
 21  0.000  0.000  0.000  0.000
 22  0.000  0.000  0.000  0.000
 23  0.000  0.000  0.000  0.000
 24  0.000  0.001  0.000  0.001
 25  0.000  0.000  0.000  0.000
 26  0.000  0.001  0.000  0.001
 27  0.000  0.000  0.000  0.000
 28  0.000  0.008  0.000  0.008
 29  0.000  0.021  0.000  0.021
 30  0.000  0.471  0.000  0.471
 31  0.000  0.021  0.000  0.021
 32  0.000  0.000  0.000  0.000
 33  0.000  0.000  0.000  0.000
 34  0.000  0.471  0.000  0.471
 35  0.000  0.000  0.000  0.000
 36  0.000  0.001  0.000  0.001
 37  0.000  0.000  0.000  0.000
 38  0.000  0.000  0.000  0.000
tot  0.000  0.997  0.000  0.997
 
band   8 # energy  -71.30514212 # occ.  2.00000000
 
ion      s      p      d    tot
  1  0.000  0.000  0.000  0.000
  2  0.000  0.000  0.000  0.000
  3  0.000  0.000  0.000  0.000
  4  0.000  0.000  0.000  0.000
  5  0.000  0.000  0.000  0.000
  6  0.000  0.000  0.000  0.000
  7  0.000  0.000  0.000  0.000
  8  0.000  0.000  0.000  0.000
  9  0.000  0.000  0.000  0.000
 10  0.000  0.000  0.000  0.000
 11  0.000  0.000  0.000  0.000
 12  0.000  0.000  0.000  0.000
 13  0.000  0.000  0.000  0.000
 14  0.000  0.000  0.000  0.000
 15  0.000  0.000  0.000  0.000
 16  0.000  0.000  0.000  0.000
 17  0.000  0.000  0.000  0.000
 18  0.000  0.000  0.000  0.000
 19  0.000  0.000  0.000  0.000
 20  0.000  0.000  0.000  0.000
 21  0.000  0.000  0.000  0.000
 22  0.000  0.000  0.000  0.000
 23  0.000  0.000  0.000  0.000
 24  0.000  0.000  0.000  0.000
 25  0.000  0.000  0.000  0.000
 26  0.000  0.000  0.000  0.000
 27  0.000  0.001  0.000  0.001
 28  0.000  0.003  0.000  0.003
 29  0.000  0.011  0.000  0.011
 30  0.000  0.485  0.000  0.485
 31  0.000  0.011  0.000  0.011
 32  0.000  0.000  0.000  0.000
 33  0.000  0.000  0.000  0.000
 34  0.000  0.485  0.000  0.485
 35  0.000  0.000  0.000  0.000
 36  0.000  0.001  0.000  0.001
 37  0.000  0.000  0.000  0.000
 38  0.000  0.000  0.000  0.000
tot  0.000  0.997  0.000  0.997
 
band   9 # energy  -71.29872005 # occ.  2.00000000
 
ion      s      p      d    tot
  1  0.000  0.000  0.000  0.000
  2  0.000  0.000  0.000  0.000
  3  0.000  0.000  0.000  0.000
  4  0.000  0.000  0.000  0.000
  5  0.000  0.000  0.000  0.000
  6  0.000  0.000  0.000  0.000
  7  0.000  0.000  0.000  0.000
  8  0.000  0.000  0.000  0.000
  9  0.000  0.000  0.000  0.000
 10  0.000  0.000  0.000  0.000
 11  0.000  0.000  0.000  0.000
 12  0.000  0.000  0.000  0.000
 13  0.000  0.000  0.000  0.000
 14  0.000  0.000  0.000  0.000
 15  0.000  0.000  0.000  0.000
 16  0.000  0.000  0.000  0.000
 17  0.000  0.000  0.000  0.000
 18  0.000  0.000  0.000  0.000
 19  0.000  0.000  0.000  0.000
 20  0.000  0.000  0.000  0.000
 21  0.000  0.000  0.000  0.000
 22  0.000  0.000  0.000  0.000
 23  0.000  0.000  0.000  0.000
 24  0.000  0.000  0.000  0.000
 25  0.000  0.000  0.000  0.000
 26  0.000  0.000  0.000  0.000
 27  0.000  0.000  0.000  0.000
 28  0.000  0.000  0.000  0.000
 29  0.000  0.016  0.000  0.016
 30  0.000  0.481  0.000  0.481
 31  0.000  0.016  0.000  0.016
 32  0.000  0.001  0.000  0.001
 33  0.000  0.000  0.000  0.000
 34  0.000  0.481  0.000  0.481
 35  0.000  0.000  0.000  0.000
 36  0.000  0.000  0.000  0.000
 37  0.000  0.000  0.000  0.000
 38  0.000  0.000  0.000  0.000
tot  0.000  0.997  0.000  0.997
 
band  10 # energy  -71.27360202 # occ.  2.00000000
 
ion      s      p      d    tot
  1  0.000  0.000  0.000  0.000
  2  0.000  0.000  0.000  0.000
  3  0.000  0.000  0.000  0.000
  4  0.000  0.000  0.000  0.000
  5  0.000  0.000  0.000  0.000
  6  0.000  0.000  0.000  0.000
  7  0.000  0.000  0.000  0.000
  8  0.000  0.000  0.000  0.000
  9  0.000  0.000  0.000  0.000
 10  0.000  0.000  0.000  0.000
 11  0.000  0.000  0.000  0.000
 12  0.000  0.000  0.000  0.000
 13  0.000  0.000  0.000  0.000
 14  0.000  0.000  0.000  0.000
 15  0.000  0.000  0.000  0.000
 16  0.000  0.000  0.000  0.000
 17  0.000  0.000  0.000  0.000
 18  0.000  0.000  0.000  0.000
 19  0.000  0.000  0.000  0.000
 20  0.000  0.000  0.000  0.000
 21  0.000  0.000  0.000  0.000
 22  0.000  0.000  0.000  0.000
 23  0.000  0.001  0.000  0.001
 24  0.000  0.000  0.000  0.000
 25  0.000  0.000  0.000  0.000
 26  0.000  0.000  0.000  0.000
 27  0.000  0.000  0.000  0.000
 28  0.000  0.001  0.000  0.001
 29  0.000  0.000  0.000  0.000
 30  0.000  0.024  0.000  0.024
 31  0.000  0.000  0.000  0.000
 32  0.000  0.000  0.000  0.000
 33  0.000  0.000  0.000  0.000
 34  0.000  0.024  0.000  0.024
 35  0.000  0.000  0.000  0.000
 36  0.000  0.945  0.000  0.945
 37  0.000  0.000  0.000  0.000
 38  0.000  0.000  0.000  0.000
tot  0.000  0.997  0.000  0.997
 
band  11 # energy  -71.17885718 # occ.  2.00000000
 
ion      s      p      d    tot
  1  0.000  0.000  0.000  0.000
  2  0.000  0.000  0.000  0.000
  3  0.000  0.000  0.000  0.000
  4  0.000  0.000  0.000  0.000
  5  0.000  0.000  0.000  0.000
  6  0.000  0.000  0.000  0.000
  7  0.000  0.000  0.000  0.000
  8  0.000  0.000  0.000  0.000
  9  0.000  0.000  0.000  0.000
 10  0.000  0.000  0.000  0.000
 11  0.000  0.000  0.000  0.000
 12  0.000  0.000  0.000  0.000
 13  0.000  0.000  0.000  0.000
 14  0.000  0.000  0.000  0.000
 15  0.000  0.000  0.000  0.000
 16  0.000  0.000  0.000  0.000
 17  0.000  0.000  0.000  0.000
 18  0.000  0.000  0.000  0.000
 19  0.000  0.001  0.000  0.001
 20  0.000  0.000  0.000  0.000
 21  0.000  0.000  0.000  0.000
 22  0.000  0.000  0.000  0.000
 23  0.000  0.000  0.000  0.000
 24  0.000  0.000  0.000  0.000
 25  0.000  0.000  0.000  0.000
 26  0.000  0.000  0.000  0.000
 27  0.000  0.000  0.000  0.000
 28  0.000  0.002  0.000  0.002
 29  0.000  0.495  0.000  0.495
 30  0.000  0.001  0.000  0.001
 31  0.000  0.495  0.000  0.495
 32  0.000  0.001  0.000  0.001
 33  0.000  0.001  0.000  0.001
 34  0.000  0.001  0.000  0.001
 35  0.000  0.001  0.000  0.001
 36  0.000  0.000  0.000  0.000
 37  0.000  0.000  0.000  0.000
 38  0.000  0.000  0.000  0.000
tot  0.000  0.996  0.000  0.996
 
band  12 # energy  -71.16199991 # occ.  2.00000000
 
ion      s      p      d    tot
  1  0.000  0.000  0.000  0.000
  2  0.000  0.000  0.000  0.000
  3  0.000  0.000  0.000  0.000
  4  0.000  0.000  0.000  0.000
  5  0.000  0.000  0.000  0.000
  6  0.000  0.000  0.000  0.000
  7  0.000  0.000  0.000  0.000
  8  0.000  0.000  0.000  0.000
  9  0.000  0.000  0.000  0.000
 10  0.000  0.000  0.000  0.000
 11  0.000  0.000  0.000  0.000
 12  0.000  0.000  0.000  0.000
 13  0.000  0.000  0.000  0.000
 14  0.000  0.000  0.000  0.000
 15  0.000  0.000  0.000  0.000
 16  0.000  0.000  0.000  0.000
 17  0.000  0.000  0.000  0.000
 18  0.000  0.000  0.000  0.000
 19  0.000  0.000  0.000  0.000
 20  0.000  0.000  0.000  0.000
 21  0.000  0.000  0.000  0.000
 22  0.000  0.000  0.000  0.000
 23  0.000  0.000  0.000  0.000
 24  0.000  0.000  0.000  0.000
 25  0.000  0.000  0.000  0.000
 26  0.000  0.000  0.000  0.000
 27  0.000  0.000  0.000  0.000
 28  0.000  0.978  0.000  0.978
 29  0.000  0.001  0.000  0.001
 30  0.000  0.008  0.000  0.008
 31  0.000  0.001  0.000  0.001
 32  0.000  0.000  0.000  0.000
 33  0.000  0.000  0.000  0.000
 34  0.000  0.008  0.000  0.008
 35  0.000  0.000  0.000  0.000
 36  0.000  0.000  0.000  0.000
 37  0.000  0.000  0.000  0.000
 38  0.000  0.000  0.000  0.000
tot  0.000  0.997  0.000  0.997
 
band  13 # energy  -71.15469630 # occ.  2.00000000
 
ion      s      p      d    tot
  1  0.000  0.000  0.000  0.000
  2  0.000  0.000  0.000  0.000
  3  0.000  0.000  0.000  0.000
  4  0.000  0.000  0.000  0.000
  5  0.000  0.000  0.000  0.000
  6  0.000  0.000  0.000  0.000
  7  0.000  0.000  0.000  0.000
  8  0.000  0.000  0.000  0.000
  9  0.000  0.000  0.000  0.000
 10  0.000  0.000  0.000  0.000
 11  0.000  0.000  0.000  0.000
 12  0.000  0.000  0.000  0.000
 13  0.000  0.000  0.000  0.000
 14  0.000  0.000  0.000  0.000
 15  0.000  0.000  0.000  0.000
 16  0.000  0.000  0.000  0.000
 17  0.000  0.000  0.000  0.000
 18  0.000  0.000  0.000  0.000
 19  0.000  0.000  0.000  0.000
 20  0.000  0.000  0.000  0.000
 21  0.000  0.000  0.000  0.000
 22  0.000  0.000  0.000  0.000
 23  0.000  0.000  0.000  0.000
 24  0.000  0.000  0.000  0.000
 25  0.000  0.000  0.000  0.000
 26  0.000  0.000  0.000  0.000
 27  0.000  0.000  0.000  0.000
 28  0.000  0.000  0.000  0.000
 29  0.000  0.485  0.000  0.485
 30  0.000  0.001  0.000  0.001
 31  0.000  0.485  0.000  0.485
 32  0.000  0.000  0.000  0.000
 33  0.000  0.001  0.000  0.001
 34  0.000  0.001  0.000  0.001
 35  0.000  0.001  0.000  0.001
 36  0.000  0.024  0.000  0.024
 37  0.000  0.000  0.000  0.000
 38  0.000  0.000  0.000  0.000
tot  0.000  0.997  0.000  0.997
 
band  14 # energy  -71.13459824 # occ.  2.00000000
 
ion      s      p      d    tot
  1  0.000  0.000  0.000  0.000
  2  0.000  0.000  0.000  0.000
  3  0.000  0.000  0.000  0.000
  4  0.000  0.000  0.000  0.000
  5  0.000  0.000  0.000  0.000
  6  0.000  0.000  0.000  0.000
  7  0.000  0.000  0.000  0.000
  8  0.000  0.000  0.000  0.000
  9  0.000  0.000  0.000  0.000
 10  0.000  0.000  0.000  0.000
 11  0.000  0.000  0.000  0.000
 12  0.000  0.000  0.000  0.000
 13  0.000  0.000  0.000  0.000
 14  0.000  0.000  0.000  0.000
 15  0.000  0.000  0.000  0.000
 16  0.000  0.000  0.000  0.000
 17  0.000  0.000  0.000  0.000
 18  0.000  0.000  0.000  0.000
 19  0.000  0.000  0.000  0.000
 20  0.000  0.000  0.000  0.000
 21  0.000  0.000  0.000  0.000
 22  0.000  0.000  0.000  0.000
 23  0.000  0.000  0.000  0.000
 24  0.000  0.000  0.000  0.000
 25  0.000  0.000  0.000  0.000
 26  0.000  0.000  0.000  0.000
 27  0.000  0.000  0.000  0.000
 28  0.000  0.986  0.000  0.986
 29  0.000  0.000  0.000  0.000
 30  0.000  0.005  0.000  0.005
 31  0.000  0.000  0.000  0.000
 32  0.000  0.000  0.000  0.000
 33  0.000  0.000  0.000  0.000
 34  0.000  0.005  0.000  0.005
 35  0.000  0.000  0.000  0.000
 36  0.000  0.000  0.000  0.000
 37  0.000  0.000  0.000  0.000
 38  0.000  0.000  0.000  0.000
tot  0.000  0.997  0.000  0.997
 
band  15 # energy  -71.09067827 # occ.  2.00000000
 
ion      s      p      d    tot
  1  0.000  0.000  0.000  0.000
  2  0.000  0.000  0.000  0.000
  3  0.000  0.000  0.000  0.000
  4  0.000  0.000  0.000  0.000
  5  0.000  0.000  0.000  0.000
  6  0.000  0.000  0.000  0.000
  7  0.000  0.000  0.000  0.000
  8  0.000  0.000  0.000  0.000
  9  0.000  0.000  0.000  0.000
 10  0.000  0.000  0.000  0.000
 11  0.000  0.000  0.000  0.000
 12  0.000  0.000  0.000  0.000
 13  0.000  0.000  0.000  0.000
 14  0.000  0.000  0.000  0.000
 15  0.000  0.000  0.000  0.000
 16  0.000  0.000  0.000  0.000
 17  0.000  0.000  0.000  0.000
 18  0.000  0.000  0.000  0.000
 19  0.000  0.003  0.000  0.003
 20  0.000  0.000  0.000  0.000
 21  0.000  0.001  0.000  0.001
 22  0.000  0.000  0.000  0.000
 23  0.000  0.000  0.000  0.000
 24  0.000  0.001  0.000  0.001
 25  0.000  0.001  0.000  0.001
 26  0.000  0.001  0.000  0.001
 27  0.000  0.000  0.000  0.000
 28  0.000  0.000  0.000  0.000
 29  0.000  0.494  0.000  0.494
 30  0.000  0.000  0.000  0.000
 31  0.000  0.494  0.000  0.494
 32  0.000  0.000  0.000  0.000
 33  0.000  0.000  0.000  0.000
 34  0.000  0.000  0.000  0.000
 35  0.000  0.000  0.000  0.000
 36  0.000  0.000  0.000  0.000
 37  0.000  0.000  0.000  0.000
 38  0.000  0.000  0.000  0.000
tot  0.000  0.997  0.000  0.997
 
band  16 # energy  -71.08301378 # occ.  2.00000000
 
ion      s      p      d    tot
  1  0.000  0.000  0.000  0.000
  2  0.000  0.000  0.000  0.000
  3  0.000  0.000  0.000  0.000
  4  0.000  0.000  0.000  0.000
  5  0.000  0.000  0.000  0.000
  6  0.000  0.000  0.000  0.000
  7  0.000  0.000  0.000  0.000
  8  0.000  0.000  0.000  0.000
  9  0.000  0.000  0.000  0.000
 10  0.000  0.000  0.000  0.000
 11  0.000  0.000  0.000  0.000
 12  0.000  0.000  0.000  0.000
 13  0.000  0.000  0.000  0.000
 14  0.000  0.000  0.000  0.000
 15  0.000  0.000  0.000  0.000
 16  0.000  0.000  0.000  0.000
 17  0.000  0.000  0.000  0.000
 18  0.000  0.000  0.000  0.000
 19  0.000  0.001  0.000  0.001
 20  0.000  0.000  0.000  0.000
 21  0.000  0.001  0.000  0.001
 22  0.000  0.000  0.000  0.000
 23  0.000  0.000  0.000  0.000
 24  0.000  0.000  0.000  0.000
 25  0.000  0.001  0.000  0.001
 26  0.000  0.000  0.000  0.000
 27  0.000  0.000  0.000  0.000
 28  0.000  0.000  0.000  0.000
 29  0.000  0.432  0.000  0.432
 30  0.000  0.001  0.000  0.001
 31  0.000  0.432  0.000  0.432
 32  0.000  0.000  0.000  0.000
 33  0.000  0.000  0.000  0.000
 34  0.000  0.001  0.000  0.001
 35  0.000  0.000  0.000  0.000
 36  0.000  0.128  0.000  0.128
 37  0.000  0.000  0.000  0.000
 38  0.000  0.000  0.000  0.000
tot  0.000  0.997  0.000  0.997
 
band  17 # energy  -71.05611068 # occ.  2.00000000
 
ion      s      p      d    tot
  1  0.000  0.000  0.000  0.000
  2  0.000  0.000  0.000  0.000
  3  0.000  0.000  0.000  0.000
  4  0.000  0.000  0.000  0.000
  5  0.000  0.000  0.000  0.000
  6  0.000  0.000  0.000  0.000
  7  0.000  0.000  0.000  0.000
  8  0.000  0.000  0.000  0.000
  9  0.000  0.000  0.000  0.000
 10  0.000  0.000  0.000  0.000
 11  0.000  0.000  0.000  0.000
 12  0.000  0.000  0.000  0.000
 13  0.000  0.000  0.000  0.000
 14  0.000  0.000  0.000  0.000
 15  0.000  0.000  0.000  0.000
 16  0.000  0.000  0.000  0.000
 17  0.000  0.000  0.000  0.000
 18  0.000  0.000  0.000  0.000
 19  0.000  0.000  0.000  0.000
 20  0.000  0.000  0.000  0.000
 21  0.000  0.000  0.000  0.000
 22  0.000  0.000  0.000  0.000
 23  0.000  0.000  0.000  0.000
 24  0.000  0.001  0.000  0.001
 25  0.000  0.000  0.000  0.000
 26  0.000  0.001  0.000  0.001
 27  0.000  0.000  0.000  0.000
 28  0.000  0.000  0.000  0.000
 29  0.000  0.077  0.000  0.077
 30  0.000  0.000  0.000  0.000
 31  0.000  0.077  0.000  0.077
 32  0.000  0.000  0.000  0.000
 33  0.000  0.000  0.000  0.000
 34  0.000  0.000  0.000  0.000
 35  0.000  0.000  0.000  0.000
 36  0.000  0.841  0.000  0.841
 37  0.000  0.000  0.000  0.000
 38  0.000  0.000  0.000  0.000
tot  0.000  0.997  0.000  0.997
 
band  18 # energy  -71.01314072 # occ.  2.00000000
 
ion      s      p      d    tot
  1  0.000  0.000  0.000  0.000
  2  0.000  0.000  0.000  0.000
  3  0.000  0.000  0.000  0.000
  4  0.000  0.000  0.000  0.000
  5  0.000  0.000  0.000  0.000
  6  0.000  0.000  0.000  0.000
  7  0.000  0.000  0.000  0.000
  8  0.000  0.000  0.000  0.000
  9  0.000  0.000  0.000  0.000
 10  0.000  0.000  0.000  0.000
 11  0.000  0.001  0.000  0.001
 12  0.000  0.000  0.000  0.000
 13  0.000  0.001  0.000  0.001
 14  0.000  0.000  0.000  0.000
 15  0.000  0.000  0.000  0.000
 16  0.000  0.000  0.000  0.000
 17  0.000  0.000  0.000  0.000
 18  0.000  0.000  0.000  0.000
 19  0.000  0.000  0.000  0.000
 20  0.000  0.000  0.000  0.000
 21  0.000  0.000  0.000  0.000
 22  0.000  0.000  0.000  0.000
 23  0.000  0.002  0.000  0.002
 24  0.000  0.004  0.000  0.004
 25  0.000  0.000  0.000  0.000
 26  0.000  0.004  0.000  0.004
 27  0.000  0.000  0.000  0.000
 28  0.000  0.000  0.000  0.000
 29  0.000  0.000  0.000  0.000
 30  0.000  0.001  0.000  0.001
 31  0.000  0.000  0.000  0.000
 32  0.000  0.000  0.000  0.000
 33  0.000  0.000  0.000  0.000
 34  0.000  0.001  0.000  0.001
 35  0.000  0.000  0.000  0.000
 36  0.000  0.982  0.000  0.982
 37  0.000  0.000  0.000  0.000
 38  0.000  0.000  0.000  0.000
tot  0.000  0.997  0.000  0.997
 
band  19 # energy  -71.00517767 # occ.  2.00000000
 
ion      s      p      d    tot
  1  0.000  0.002  0.000  0.002
  2  0.000  0.000  0.000  0.000
  3  0.000  0.000  0.000  0.000
  4  0.000  0.000  0.000  0.000
  5  0.000  0.000  0.000  0.000
  6  0.000  0.000  0.000  0.000
  7  0.000  0.000  0.000  0.000
  8  0.000  0.000  0.000  0.000
  9  0.000  0.000  0.000  0.000
 10  0.000  0.016  0.000  0.016
 11  0.000  0.040  0.000  0.040
 12  0.000  0.369  0.000  0.369
 13  0.000  0.040  0.000  0.040
 14  0.000  0.055  0.000  0.055
 15  0.000  0.001  0.000  0.001
 16  0.000  0.369  0.000  0.369
 17  0.000  0.001  0.000  0.001
 18  0.000  0.006  0.000  0.006
 19  0.000  0.000  0.000  0.000
 20  0.000  0.047  0.000  0.047
 21  0.000  0.000  0.000  0.000
 22  0.000  0.047  0.000  0.047
 23  0.000  0.000  0.000  0.000
 24  0.000  0.000  0.000  0.000
 25  0.000  0.000  0.000  0.000
 26  0.000  0.000  0.000  0.000
 27  0.000  0.000  0.000  0.000
 28  0.000  0.000  0.000  0.000
 29  0.000  0.000  0.000  0.000
 30  0.000  0.000  0.000  0.000
 31  0.000  0.000  0.000  0.000
 32  0.000  0.000  0.000  0.000
 33  0.000  0.000  0.000  0.000
 34  0.000  0.000  0.000  0.000
 35  0.000  0.000  0.000  0.000
 36  0.000  0.001  0.000  0.001
 37  0.000  0.000  0.000  0.000
 38  0.000  0.000  0.000  0.000
tot  0.000  0.996  0.000  0.996
 
band  20 # energy  -71.00153393 # occ.  2.00000000
 
ion      s      p      d    tot
  1  0.000  0.000  0.000  0.000
  2  0.000  0.000  0.000  0.000
  3  0.000  0.000  0.000  0.000
  4  0.000  0.000  0.000  0.000
  5  0.000  0.000  0.000  0.000
  6  0.000  0.000  0.000  0.000
  7  0.000  0.000  0.000  0.000
  8  0.000  0.000  0.000  0.000
  9  0.000  0.000  0.000  0.000
 10  0.000  0.000  0.000  0.000
 11  0.000  0.058  0.000  0.058
 12  0.000  0.177  0.000  0.177
 13  0.000  0.058  0.000  0.058
 14  0.000  0.396  0.000  0.396
 15  0.000  0.007  0.000  0.007
 16  0.000  0.177  0.000  0.177
 17  0.000  0.007  0.000  0.007
 18  0.000  0.004  0.000  0.004
 19  0.000  0.000  0.000  0.000
 20  0.000  0.055  0.000  0.055
 21  0.000  0.000  0.000  0.000
 22  0.000  0.055  0.000  0.055
 23  0.000  0.000  0.000  0.000
 24  0.000  0.000  0.000  0.000
 25  0.000  0.000  0.000  0.000
 26  0.000  0.000  0.000  0.000
 27  0.000  0.000  0.000  0.000
 28  0.000  0.000  0.000  0.000
 29  0.000  0.000  0.000  0.000
 30  0.000  0.000  0.000  0.000
 31  0.000  0.000  0.000  0.000
 32  0.000  0.000  0.000  0.000
 33  0.000  0.000  0.000  0.000
 34  0.000  0.000  0.000  0.000
 35  0.000  0.000  0.000  0.000
 36  0.000  0.000  0.000  0.000
 37  0.000  0.000  0.000  0.000
 38  0.000  0.000  0.000  0.000
tot  0.000  0.996  0.000  0.996
 
band  21 # energy  -70.99888821 # occ.  2.00000000
 
ion      s      p      d    tot
  1  0.000  0.000  0.000  0.000
  2  0.000  0.000  0.000  0.000
  3  0.000  0.000  0.000  0.000
  4  0.000  0.000  0.000  0.000
  5  0.000  0.000  0.000  0.000
  6  0.000  0.001  0.000  0.001
  7  0.000  0.000  0.000  0.000
  8  0.000  0.001  0.000  0.001
  9  0.000  0.000  0.000  0.000
 10  0.000  0.002  0.000  0.002
 11  0.000  0.042  0.000  0.042
 12  0.000  0.344  0.000  0.344
 13  0.000  0.042  0.000  0.042
 14  0.000  0.072  0.000  0.072
 15  0.000  0.031  0.000  0.031
 16  0.000  0.344  0.000  0.344
 17  0.000  0.031  0.000  0.031
 18  0.000  0.059  0.000  0.059
 19  0.000  0.000  0.000  0.000
 20  0.000  0.011  0.000  0.011
 21  0.000  0.000  0.000  0.000
 22  0.000  0.011  0.000  0.011
 23  0.000  0.000  0.000  0.000
 24  0.000  0.000  0.000  0.000
 25  0.000  0.000  0.000  0.000
 26  0.000  0.000  0.000  0.000
 27  0.000  0.003  0.000  0.003
 28  0.000  0.000  0.000  0.000
 29  0.000  0.000  0.000  0.000
 30  0.000  0.000  0.000  0.000
 31  0.000  0.000  0.000  0.000
 32  0.000  0.000  0.000  0.000
 33  0.000  0.000  0.000  0.000
 34  0.000  0.000  0.000  0.000
 35  0.000  0.000  0.000  0.000
 36  0.000  0.000  0.000  0.000
 37  0.000  0.000  0.000  0.000
 38  0.000  0.000  0.000  0.000
tot  0.000  0.996  0.000  0.996
 
band  22 # energy  -70.99401582 # occ.  2.00000000
 
ion      s      p      d    tot
  1  0.000  0.000  0.000  0.000
  2  0.000  0.000  0.000  0.000
  3  0.000  0.001  0.000  0.001
  4  0.000  0.000  0.000  0.000
  5  0.000  0.000  0.000  0.000
  6  0.000  0.000  0.000  0.000
  7  0.000  0.001  0.000  0.001
  8  0.000  0.000  0.000  0.000
  9  0.000  0.000  0.000  0.000
 10  0.000  0.050  0.000  0.050
 11  0.000  0.048  0.000  0.048
 12  0.000  0.308  0.000  0.308
 13  0.000  0.048  0.000  0.048
 14  0.000  0.039  0.000  0.039
 15  0.000  0.028  0.000  0.028
 16  0.000  0.308  0.000  0.308
 17  0.000  0.028  0.000  0.028
 18  0.000  0.130  0.000  0.130
 19  0.000  0.000  0.000  0.000
 20  0.000  0.001  0.000  0.001
 21  0.000  0.001  0.000  0.001
 22  0.000  0.001  0.000  0.001
 23  0.000  0.000  0.000  0.000
 24  0.000  0.001  0.000  0.001
 25  0.000  0.001  0.000  0.001
 26  0.000  0.001  0.000  0.001
 27  0.000  0.001  0.000  0.001
 28  0.000  0.000  0.000  0.000
 29  0.000  0.000  0.000  0.000
 30  0.000  0.000  0.000  0.000
 31  0.000  0.000  0.000  0.000
 32  0.000  0.000  0.000  0.000
 33  0.000  0.000  0.000  0.000
 34  0.000  0.000  0.000  0.000
 35  0.000  0.000  0.000  0.000
 36  0.000  0.000  0.000  0.000
 37  0.000  0.000  0.000  0.000
 38  0.000  0.000  0.000  0.000
tot  0.000  0.996  0.000  0.996
 
band  23 # energy  -70.99256489 # occ.  2.00000000
 
ion      s      p      d    tot
  1  0.000  0.000  0.000  0.000
  2  0.000  0.000  0.000  0.000
  3  0.000  0.000  0.000  0.000
  4  0.000  0.000  0.000  0.000
  5  0.000  0.000  0.000  0.000
  6  0.000  0.001  0.000  0.001
  7  0.000  0.000  0.000  0.000
  8  0.000  0.001  0.000  0.001
  9  0.000  0.000  0.000  0.000
 10  0.000  0.002  0.000  0.002
 11  0.000  0.199  0.000  0.199