unknown system                          
           1
     7.529542    0.000000    0.000000
     3.764771    6.520775    0.000000
     0.000000    0.000000   26.207423
   Cu   C 
  36   2
Direct configuration=     1
   0.00000000  0.00000000  0.00000000
   0.00000000  0.33333333  0.00000000
   0.00000000  0.66666667  0.00000000
   0.33333333  0.00000000  0.00000000
   0.33333333  0.33333333  0.00000000
   0.33333333  0.66666667  0.00000000
   0.66666667  0.00000000  0.00000000
   0.66666667  0.33333333  0.00000000
   0.66666667  0.66666667  0.00000000
   0.11111111  0.11111111  0.07819471
   0.11111111  0.44444444  0.07819471
   0.11111111  0.77777778  0.07819471
   0.44444444  0.11111111  0.07819471
   0.44444444  0.44444444  0.07819471
   0.44444444  0.77777778  0.07819471
   0.77777778  0.11111111  0.07819471
   0.77777778  0.44444444  0.07819471
   0.77777778  0.77777778  0.07819471
   0.22156672  0.22156672  0.15698183
   0.22219376  0.55556979  0.15663707
   0.22156672  0.89019990  0.15698183
   0.55556979  0.22219376  0.15663707
   0.55556979  0.55556979  0.15663707
   0.55498583  0.88917375  0.15640686
   0.89019990  0.22156672  0.15698183
   0.88917375  0.55498583  0.15640686
   0.88917375  0.88917375  0.15640686
   0.99499124  0.99499124  0.23819225
   0.99499124  0.34335085  0.23819225
   0.99922840  0.66705247  0.23489935
   0.34335085  0.99499124  0.23819225
   0.33432735  0.33432735  0.23600336
   0.33432735  0.66467863  0.23600336
   0.66705247  0.99922840  0.23489935
   0.66467863  0.33432735  0.23600336
   0.66705247  0.66705247  0.23489935
   0.11111111  0.11111111  0.27869515
   0.88709070  0.88709070  0.32773254
Direct configuration=     2
   0.00000000  0.00000000  0.00000000
   0.00000000  0.33333333  0.00000000
   0.00000000  0.66666667  0.00000000
   0.33333333  0.00000000  0.00000000
   0.33333333  0.33333333  0.00000000
   0.33333333  0.66666667  0.00000000
   0.66666667  0.00000000  0.00000000
   0.66666667  0.33333333  0.00000000
   0.66666667  0.66666667  0.00000000
   0.11111111  0.11111111  0.07819471
   0.11111111  0.44444444  0.07819471
   0.11111111  0.77777778  0.07819471
   0.44444444  0.11111111  0.07819471
   0.44444444  0.44444444  0.07819471
   0.44444444  0.77777778  0.07819471
   0.77777778  0.11111111  0.07819471
   0.77777778  0.44444444  0.07819471
   0.77777778  0.77777778  0.07819471
   0.22162499  0.22162499  0.15699932
   0.22200111  0.55545941  0.15667374
   0.22141197  0.89016446  0.15704308
   0.55545941  0.22200111  0.15667374
   0.55553575  0.55553575  0.15675868
   0.55517505  0.88932747  0.15638831
   0.89016446  0.22141197  0.15704308
   0.88932747  0.55517505  0.15638831
   0.88917190  0.88917190  0.15623770
   0.99403995  0.99403995  0.23953738
   0.99494847  0.34331561  0.23818828
   0.99835425  0.66839163  0.23634071
   0.34331561  0.99494847  0.23818828
   0.33448375  0.33448375  0.23601650
   0.33435319  0.66472639  0.23608521
   0.66839163  0.99835425  0.23634071
   0.66472639  0.33435319  0.23608521
   0.66699937  0.66699937  0.23509333
   0.11072466  0.11072466  0.27905305
   0.88785794  0.88785794  0.32289042
Direct configuration=     3
   0.00000000  0.00000000  0.00000000
   0.00000000  0.33333333  0.00000000
   0.00000000  0.66666667  0.00000000
   0.33333333  0.00000000  0.00000000
   0.33333333  0.33333333  0.00000000
   0.33333333  0.66666667  0.00000000
   0.66666667  0.00000000  0.00000000
   0.66666667  0.33333333  0.00000000
   0.66666667  0.66666667  0.00000000
   0.11111111  0.11111111  0.07819471
   0.11111111  0.44444444  0.07819471
   0.11111111  0.77777778  0.07819471
   0.44444444  0.11111111  0.07819471
   0.44444444  0.44444444  0.07819471
   0.44444444  0.77777778  0.07819471
   0.77777778  0.11111111  0.07819471
   0.77777778  0.44444444  0.07819471
   0.77777778  0.77777778  0.07819471
   0.22179982  0.22179982  0.15705179
   0.22142314  0.55512830  0.15678372
   0.22094774  0.89005814  0.15722682
   0.55512830  0.22142314  0.15678372
   0.55543366  0.55543366  0.15712348
   0.55574270  0.88978864  0.15633267
   0.89005814  0.22094774  0.15722682
   0.88978864  0.55574270  0.15633267
   0.88916634  0.88916634  0.15573022
   0.99118608  0.99118608  0.24357278
   0.99482017  0.34320992  0.23817635
   0.99573181  0.67240910  0.24066479
   0.34320992  0.99482017  0.23817635
   0.33495293  0.33495293  0.23605590
   0.33443070  0.66486966  0.23633074
   0.67240910  0.99573181  0.24066479
   0.66486966  0.33443070  0.23633074
   0.66684009  0.66684009  0.23567527
   0.10956533  0.10956533  0.28012677
   0.89015965  0.89015965  0.30836406
Direct configuration=     4
   0.00000000  0.00000000  0.00000000
   0.00000000  0.33333333  0.00000000
   0.00000000  0.66666667  0.00000000
   0.33333333  0.00000000  0.00000000
   0.33333333  0.33333333  0.00000000
   0.33333333  0.66666667  0.00000000
   0.66666667  0.00000000  0.00000000
   0.66666667  0.33333333  0.00000000
   0.66666667  0.66666667  0.00000000
   0.11111111  0.11111111  0.07819471
   0.11111111  0.44444444  0.07819471
   0.11111111  0.77777778  0.07819471
   0.44444444  0.11111111  0.07819471
   0.44444444  0.44444444  0.07819471
   0.44444444  0.77777778  0.07819471
   0.77777778  0.11111111  0.07819471
   0.77777778  0.44444444  0.07819471
   0.77777778  0.77777778  0.07819471
   0.22214948  0.22214948  0.15715672
   0.22026720  0.55446607  0.15700368
   0.22001928  0.88984549  0.15759431
   0.55446607  0.22026720  0.15700368
   0.55522948  0.55522948  0.15785308
   0.55687799  0.89071099  0.15622139
   0.88984549  0.22001928  0.15759431
   0.89071099  0.55687799  0.15622139
   0.88915521  0.88915521  0.15471528
   0.98547833  0.98547833  0.25164356
   0.99456355  0.34299852  0.23815248
   0.99048692  0.68044406  0.24931296
   0.34299852  0.99456355  0.23815248
   0.33589130  0.33589130  0.23613471
   0.33458574  0.66515621  0.23682181
   0.68044406  0.99048692  0.24931296
   0.66515621  0.33458574  0.23682181
   0.66652153  0.66652153  0.23683914
   0.10724665  0.10724665  0.28227420
   0.89476308  0.89476308  0.27931134
Direct configuration=     5
   0.00000000  0.00000000  0.00000000
   0.00000000  0.33333333  0.00000000
   0.00000000  0.66666667  0.00000000
   0.33333333  0.00000000  0.00000000
   0.33333333  0.33333333  0.00000000
   0.33333333  0.66666667  0.00000000
   0.66666667  0.00000000  0.00000000
   0.66666667  0.33333333  0.00000000
   0.66666667  0.66666667  0.00000000
   0.11111111  0.11111111  0.07819471
   0.11111111  0.44444444  0.07819471
   0.11111111  0.77777778  0.07819471
   0.44444444  0.11111111  0.07819471
   0.44444444  0.44444444  0.07819471
   0.44444444  0.77777778  0.07819471
   0.77777778  0.11111111  0.07819471
   0.77777778  0.44444444  0.07819471
   0.77777778  0.77777778  0.07819471
   0.22184372  0.22184372  0.15706496
   0.22127804  0.55504517  0.15681133
   0.22083119  0.89003144  0.15727295
   0.55504517  0.22127804  0.15681133
   0.55540803  0.55540803  0.15721506
   0.55588521  0.88990443  0.15631870
   0.89003144  0.22083119  0.15727295
   0.88990443  0.55588521  0.15631870
   0.88916494  0.88916494  0.15560282
   0.99046959  0.99046959  0.24458589
   0.99478795  0.34318338  0.23817335
   0.99507342  0.67341772  0.24175039
   0.34318338  0.99478795  0.23817335
   0.33507072  0.33507072  0.23606579
   0.33445017  0.66490563  0.23639239
   0.67341772  0.99507342  0.24175039
   0.66490563  0.33445017  0.23639239
   0.66680010  0.66680010  0.23582137
   0.10927427  0.10927427  0.28039633
   0.89073752  0.89073752  0.30471710
Direct configuration=     6
   0.00000000  0.00000000  0.00000000
   0.00000000  0.33333333  0.00000000
   0.00000000  0.66666667  0.00000000
   0.33333333  0.00000000  0.00000000
   0.33333333  0.33333333  0.00000000
   0.33333333  0.66666667  0.00000000
   0.66666667  0.00000000  0.00000000
   0.66666667  0.33333333  0.00000000
   0.66666667  0.66666667  0.00000000
   0.11111111  0.11111111  0.07819471
   0.11111111  0.44444444  0.07819471
   0.11111111  0.77777778  0.07819471
   0.44444444  0.11111111  0.07819471
   0.44444444  0.44444444  0.07819471
   0.44444444  0.77777778  0.07819471
   0.77777778  0.11111111  0.07819471
   0.77777778  0.44444444  0.07819471
   0.77777778  0.77777778  0.07819471
   0.22199660  0.22199660  0.15711084
   0.22077262  0.55475562  0.15690750
   0.22042524  0.88993847  0.15743363
   0.55475562  0.22077262  0.15690750
   0.55531876  0.55531876  0.15753407
   0.55638160  0.89030771  0.15627005
   0.88993847  0.22042524  0.15743363
   0.89030771  0.55638160  0.15627005
   0.88916008  0.88916008  0.15515905
   0.98797396  0.98797396  0.24811473
   0.99467575  0.34309095  0.23816292
   0.99278017  0.67693089  0.24553167
   0.34309095  0.99467575  0.23816292
   0.33548101  0.33548101  0.23610025
   0.33451795  0.66503092  0.23660710
   0.67693089  0.99278017  0.24553167
   0.66503092  0.33451795  0.23660710
   0.66666082  0.66666082  0.23633025
   0.10826046  0.10826046  0.28133526
   0.89275030  0.89275030  0.29201422
Direct configuration=     7
   0.00000000  0.00000000  0.00000000
   0.00000000  0.33333333  0.00000000
   0.00000000  0.66666667  0.00000000
   0.33333333  0.00000000  0.00000000
   0.33333333  0.33333333  0.00000000
   0.33333333  0.66666667  0.00000000
   0.66666667  0.00000000  0.00000000
   0.66666667  0.33333333  0.00000000
   0.66666667  0.66666667  0.00000000
   0.11111111  0.11111111  0.07819471
   0.11111111  0.44444444  0.07819471
   0.11111111  0.77777778  0.07819471
   0.44444444  0.11111111  0.07819471
   0.44444444  0.44444444  0.07819471
   0.44444444  0.77777778  0.07819471
   0.77777778  0.11111111  0.07819471
   0.77777778  0.44444444  0.07819471
   0.77777778  0.77777778  0.07819471
   0.22191467  0.22191467  0.15708625
   0.22104345  0.55491078  0.15685597
   0.22064277  0.88998829  0.15734753
   0.55491078  0.22104345  0.15685597
   0.55536660  0.55536660  0.15736313
   0.55611560  0.89009160  0.15629612
   0.88998829  0.22064277  0.15734753
   0.89009160  0.55611560  0.15629612
   0.88916268  0.88916268  0.15539685
   0.98931127  0.98931127  0.24622376
   0.99473588  0.34314048  0.23816851
   0.99400904  0.67504832  0.24350543
   0.34314048  0.99473588  0.23816851
   0.33526115  0.33526115  0.23608179
   0.33448163  0.66496379  0.23649204
   0.67504832  0.99400904  0.24350543
   0.66496379  0.33448163  0.23649204
   0.66673546  0.66673546  0.23605756
   0.10880372  0.10880372  0.28083213
   0.89167173  0.89167173  0.29882120
Direct configuration=     8
   0.00000000  0.00000000  0.00000000
   0.00000000  0.33333333  0.00000000
   0.00000000  0.66666667  0.00000000
   0.33333333  0.00000000  0.00000000
   0.33333333  0.33333333  0.00000000
   0.33333333  0.66666667  0.00000000
   0.66666667  0.00000000  0.00000000
   0.66666667  0.33333333  0.00000000
   0.66666667  0.66666667  0.00000000
   0.11111111  0.11111111  0.07819471
   0.11111111  0.44444444  0.07819471
   0.11111111  0.77777778  0.07819471
   0.44444444  0.11111111  0.07819471
   0.44444444  0.44444444  0.07819471
   0.44444444  0.77777778  0.07819471
   0.77777778  0.11111111  0.07819471
   0.77777778  0.44444444  0.07819471
   0.77777778  0.77777778  0.07819471
   0.22195401  0.22195401  0.15709806
   0.22091341  0.55483627  0.15688071
   0.22053832  0.88996437  0.15738887
   0.55483627  0.22091341  0.15688071
   0.55534363  0.55534363  0.15744521
   0.55624332  0.89019537  0.15628360
   0.88996437  0.22053832  0.15738887
   0.89019537  0.55624332  0.15628360
   0.88916143  0.88916143  0.15528267
   0.98866915  0.98866915  0.24713173
   0.99470701  0.34311670  0.23816582
   0.99341899  0.67595225  0.24447835
   0.34311670  0.99470701  0.23816582
   0.33536672  0.33536672  0.23609065
   0.33449907  0.66499602  0.23654729
   0.67595225  0.99341899  0.24447835
   0.66499602  0.33449907  0.23654729
   0.66669962  0.66669962  0.23618849
   0.10854287  0.10854287  0.28107371
   0.89218961  0.89218961  0.29555277
Direct configuration=     9
   0.00000000  0.00000000  0.00000000
   0.00000000  0.33333333  0.00000000
   0.00000000  0.66666667  0.00000000
   0.33333333  0.00000000  0.00000000
   0.33333333  0.33333333  0.00000000
   0.33333333  0.66666667  0.00000000
   0.66666667  0.00000000  0.00000000
   0.66666667  0.33333333  0.00000000
   0.66666667  0.66666667  0.00000000
   0.11111111  0.11111111  0.07819471
   0.11111111  0.44444444  0.07819471
   0.11111111  0.77777778  0.07819471
   0.44444444  0.11111111  0.07819471
   0.44444444  0.44444444  0.07819471
   0.44444444  0.77777778  0.07819471
   0.77777778  0.11111111  0.07819471
   0.77777778  0.44444444  0.07819471
   0.77777778  0.77777778  0.07819471
   0.22183178  0.22183178  0.15724736
   0.22027569  0.55531740  0.15716018
   0.22028841  0.89013274  0.15756863
   0.55531740  0.22027569  0.15716018
   0.55535876  0.55535876  0.15757923
   0.55645818  0.89026887  0.15660483
   0.89013274  0.22028841  0.15756863
   0.89026887  0.55645818  0.15660483
   0.88912301  0.88912301  0.15579814
   0.99162311  0.99162311  0.24712039
   0.99589854  0.34145507  0.23832659
   0.99516066  0.67176056  0.24580097
   0.34145507  0.99589854  0.23832659
   0.33531197  0.33531197  0.23606255
   0.33445842  0.66509254  0.23658523
   0.67176056  0.99516066  0.24580097
   0.66509254  0.33445842  0.23658523
   0.66640134  0.66640134  0.23620973
   0.11150398  0.11150398  0.28114508
   0.88935296  0.88935296  0.29031582
Direct configuration=    10
   0.00000000  0.00000000  0.00000000
   0.00000000  0.33333333  0.00000000
   0.00000000  0.66666667  0.00000000
   0.33333333  0.00000000  0.00000000
   0.33333333  0.33333333  0.00000000
   0.33333333  0.66666667  0.00000000
   0.66666667  0.00000000  0.00000000
   0.66666667  0.33333333  0.00000000
   0.66666667  0.66666667  0.00000000
   0.11111111  0.11111111  0.07819471
   0.11111111  0.44444444  0.07819471
   0.11111111  0.77777778  0.07819471
   0.44444444  0.11111111  0.07819471
   0.44444444  0.44444444  0.07819471
   0.44444444  0.77777778  0.07819471
   0.77777778  0.11111111  0.07819471
   0.77777778  0.44444444  0.07819471
   0.77777778  0.77777778  0.07819471
   0.22180783  0.22180783  0.15727661
   0.22015073  0.55541168  0.15721494
   0.22023944  0.89016573  0.15760385
   0.55541168  0.22015073  0.15721494
   0.55536173  0.55536173  0.15760549
   0.55650028  0.89028328  0.15666777
   0.89016573  0.22023944  0.15760385
   0.89028328  0.55650028  0.15666777
   0.88911548  0.88911548  0.15589915
   0.99220193  0.99220193  0.24711817
   0.99613202  0.34112948  0.23835809
   0.99550194  0.67093922  0.24606013
   0.34112948  0.99613202  0.23835809
   0.33530125  0.33530125  0.23605704
   0.33445045  0.66511145  0.23659267
   0.67093922  0.99550194  0.24606013
   0.66511145  0.33445045  0.23659267
   0.66634290  0.66634290  0.23621389
   0.11208419  0.11208419  0.28115907
   0.88879713  0.88879713  0.28928966
Direct configuration=    11
   0.00000000  0.00000000  0.00000000
   0.00000000  0.33333333  0.00000000
   0.00000000  0.66666667  0.00000000
   0.33333333  0.00000000  0.00000000
   0.33333333  0.33333333  0.00000000
   0.33333333  0.66666667  0.00000000
   0.66666667  0.00000000  0.00000000
   0.66666667  0.33333333  0.00000000
   0.66666667  0.66666667  0.00000000
   0.11111111  0.11111111  0.07819471
   0.11111111  0.44444444  0.07819471
   0.11111111  0.77777778  0.07819471
   0.44444444  0.11111111  0.07819471
   0.44444444  0.44444444  0.07819471
   0.44444444  0.77777778  0.07819471
   0.77777778  0.11111111  0.07819471
   0.77777778  0.44444444  0.07819471
   0.77777778  0.77777778  0.07819471
   0.22166141  0.22166141  0.15741183
   0.21954722  0.55610223  0.15753469
   0.22015455  0.89037529  0.15776091
   0.55610223  0.21954722  0.15753469
   0.55539732  0.55539732  0.15762799
   0.55657937  0.89021267  0.15711892
   0.89037529  0.22015455  0.15776091
   0.89021267  0.55657937  0.15711892
   0.88903439  0.88903439  0.15672238
   0.99777731  0.99777731  0.24508816
   0.99691882  0.34013208  0.23841088
   0.00000683  0.66176513  0.24569287
   0.34013208  0.99691882  0.23841088
   0.33509995  0.33509995  0.23605016
   0.33441290  0.66505796  0.23656445
   0.66176513  0.00000683  0.24569287
   0.66505796  0.33441290  0.23656445
   0.66596193  0.66596193  0.23606085
   0.11647801  0.11647801  0.28138453
   0.88412749  0.88412749  0.28875775
Direct configuration=    12
   0.00000000  0.00000000  0.00000000
   0.00000000  0.33333333  0.00000000
   0.00000000  0.66666667  0.00000000
   0.33333333  0.00000000  0.00000000
   0.33333333  0.33333333  0.00000000
   0.33333333  0.66666667  0.00000000
   0.66666667  0.00000000  0.00000000
   0.66666667  0.33333333  0.00000000
   0.66666667  0.66666667  0.00000000
   0.11111111  0.11111111  0.07819471
   0.11111111  0.44444444  0.07819471
   0.11111111  0.77777778  0.07819471
   0.44444444  0.11111111  0.07819471
   0.44444444  0.44444444  0.07819471
   0.44444444  0.77777778  0.07819471
   0.77777778  0.11111111  0.07819471
   0.77777778  0.44444444  0.07819471
   0.77777778  0.77777778  0.07819471
   0.22158884  0.22158884  0.15747885
   0.21924809  0.55644451  0.15769317
   0.22011247  0.89047915  0.15783876
   0.55644451  0.21924809  0.15769317
   0.55541495  0.55541495  0.15763914
   0.55661857  0.89017767  0.15734254
   0.89047915  0.22011247  0.15783876
   0.89017767  0.55661857  0.15734254
   0.88899420  0.88899420  0.15713042
   0.00054075  0.00054075  0.24408199
   0.99730880  0.33963772  0.23843705
   0.00223969  0.65721797  0.24551083
   0.33963772  0.99730880  0.23843705
   0.33500018  0.33500018  0.23604675
   0.33439428  0.66503144  0.23655047
   0.65721797  0.00223969  0.24551083
   0.66503144  0.33439428  0.23655047
   0.66577311  0.66577311  0.23598500
   0.11865581  0.11865581  0.28149629
   0.88181297  0.88181297  0.28849410
Direct configuration=    13
   0.00000000  0.00000000  0.00000000
   0.00000000  0.33333333  0.00000000
   0.00000000  0.66666667  0.00000000
   0.33333333  0.00000000  0.00000000
   0.33333333  0.33333333  0.00000000
   0.33333333  0.66666667  0.00000000
   0.66666667  0.00000000  0.00000000
   0.66666667  0.33333333  0.00000000
   0.66666667  0.66666667  0.00000000
   0.11111111  0.11111111  0.07819471
   0.11111111  0.44444444  0.07819471
   0.11111111  0.77777778  0.07819471
   0.44444444  0.11111111  0.07819471
   0.44444444  0.44444444  0.07819471
   0.44444444  0.77777778  0.07819471
   0.77777778  0.11111111  0.07819471
   0.77777778  0.44444444  0.07819471
   0.77777778  0.77777778  0.07819471
   0.22161103  0.22161103  0.15745557
   0.21907328  0.55675484  0.15781624
   0.22029704  0.89046916  0.15784017
   0.55675484  0.21907328  0.15781624
   0.55537662  0.55537662  0.15754337
   0.55662413  0.89006778  0.15757239
   0.89046916  0.22029704  0.15784017
   0.89006778  0.55662413  0.15757239
   0.88888221  0.88888221  0.15771953
  -0.00063524 -0.00063524  0.24367319
   0.99617123  0.34094759  0.23816945
   0.00379327  0.65560365  0.24489372
   0.34094759  0.99617123  0.23816945
   0.33487899  0.33487899  0.23609934
   0.33429712  0.66483934  0.23655006
   0.65560365  0.00379327  0.24489372
   0.66483934  0.33429712  0.23655006
   0.66561830  0.66561830  0.23592960
   0.12078383  0.12078383  0.28214808
   0.88104704  0.88104704  0.28766630
Direct configuration=    14
   0.00000000  0.00000000  0.00000000
   0.00000000  0.33333333  0.00000000
   0.00000000  0.66666667  0.00000000
   0.33333333  0.00000000  0.00000000
   0.33333333  0.33333333  0.00000000
   0.33333333  0.66666667  0.00000000
   0.66666667  0.00000000  0.00000000
   0.66666667  0.33333333  0.00000000
   0.66666667  0.66666667  0.00000000
   0.11111111  0.11111111  0.07819471
   0.11111111  0.44444444  0.07819471
   0.11111111  0.77777778  0.07819471
   0.44444444  0.11111111  0.07819471
   0.44444444  0.44444444  0.07819471
   0.44444444  0.77777778  0.07819471
   0.77777778  0.11111111  0.07819471
   0.77777778  0.44444444  0.07819471
   0.77777778  0.77777778  0.07819471
   0.22163084  0.22163084  0.15743480
   0.21891726  0.55703181  0.15792608
   0.22046177  0.89046025  0.15784143
   0.55703181  0.21891726  0.15792608
   0.55534241  0.55534241  0.15745789
   0.55662908  0.88996970  0.15777753
   0.89046025  0.22046177  0.15784143
   0.88996970  0.55662908  0.15777753
   0.88878225  0.88878225  0.15824532
  -0.00168482 -0.00168482  0.24330833
   0.99515594  0.34211666  0.23793063
   0.00517985  0.65416287  0.24434295
   0.34211666  0.99515594  0.23793063
   0.33477083  0.33477083  0.23614627
   0.33421040  0.66466789  0.23654969
   0.65416287  0.00517985  0.24434295
   0.66466789  0.33421040  0.23654969
   0.66548013  0.66548013  0.23588016
   0.12268310  0.12268310  0.28272980
   0.88036344  0.88036344  0.28692749
Direct configuration=    15
   0.00000000  0.00000000  0.00000000
   0.00000000  0.33333333  0.00000000
   0.00000000  0.66666667  0.00000000
   0.33333333  0.00000000  0.00000000
   0.33333333  0.33333333  0.00000000
   0.33333333  0.66666667  0.00000000
   0.66666667  0.00000000  0.00000000
   0.66666667  0.33333333  0.00000000
   0.66666667  0.66666667  0.00000000
   0.11111111  0.11111111  0.07819471
   0.11111111  0.44444444  0.07819471
   0.11111111  0.77777778  0.07819471
   0.44444444  0.11111111  0.07819471
   0.44444444  0.44444444  0.07819471
   0.44444444  0.77777778  0.07819471
   0.77777778  0.11111111  0.07819471
   0.77777778  0.44444444  0.07819471
   0.77777778  0.77777778  0.07819471
   0.22171136  0.22171136  0.15736604
   0.21896918  0.55714170  0.15794283
   0.22062050  0.89047241  0.15778301
   0.55714170  0.21896918  0.15794283
   0.55525055  0.55525055  0.15732164
   0.55675852  0.88976608  0.15783825
   0.89047241  0.22062050  0.15778301
   0.88976608  0.55675852  0.15783825
   0.88864890  0.88864890  0.15869905
  -0.00177267 -0.00177267  0.24376800
   0.99452389  0.34144681  0.23786040
   0.00571967  0.65472432  0.24358219
   0.34144681  0.99452389  0.23786040
   0.33446208  0.33446208  0.23626279
   0.33424658  0.66444201  0.23656734
   0.65472432  0.00571967  0.24358219
   0.66444201  0.33424658  0.23656734
   0.66539338  0.66539338  0.23591282
   0.12361291  0.12361291  0.28239264
   0.87991427  0.87991427  0.28569448
Direct configuration=    16
   0.00000000  0.00000000  0.00000000
   0.00000000  0.33333333  0.00000000
   0.00000000  0.66666667  0.00000000
   0.33333333  0.00000000  0.00000000
   0.33333333  0.33333333  0.00000000
   0.33333333  0.66666667  0.00000000
   0.66666667  0.00000000  0.00000000
   0.66666667  0.33333333  0.00000000
   0.66666667  0.66666667  0.00000000
   0.11111111  0.11111111  0.07819471
   0.11111111  0.44444444  0.07819471
   0.11111111  0.77777778  0.07819471
   0.44444444  0.11111111  0.07819471
   0.44444444  0.44444444  0.07819471
   0.44444444  0.77777778  0.07819471
   0.77777778  0.11111111  0.07819471
   0.77777778  0.44444444  0.07819471
   0.77777778  0.77777778  0.07819471
   0.22182765  0.22182765  0.15726673
   0.21904416  0.55730040  0.15796702
   0.22084973  0.89048998  0.15769863
   0.55730040  0.21904416  0.15796702
   0.55511788  0.55511788  0.15712488
   0.55694545  0.88947199  0.15792594
   0.89048998  0.22084973  0.15769863
   0.88947199  0.55694545  0.15792594
   0.88845631  0.88845631  0.15935434
  -0.00189954 -0.00189954  0.24443186
   0.99361109  0.34047940  0.23775898
   0.00649928  0.65553518  0.24248348
   0.34047940  0.99361109  0.23775898
   0.33401617  0.33401617  0.23643107
   0.33429884  0.66411580  0.23659282
   0.65553518  0.00649928  0.24248348
   0.66411580  0.33429884  0.23659282
   0.66526810  0.66526810  0.23595998
   0.12495574  0.12495574  0.28190571
   0.87926557  0.87926557  0.28391375
Direct configuration=    17
   0.00000000  0.00000000  0.00000000
   0.00000000  0.33333333  0.00000000
   0.00000000  0.66666667  0.00000000
   0.33333333  0.00000000  0.00000000
   0.33333333  0.33333333  0.00000000
   0.33333333  0.66666667  0.00000000
   0.66666667  0.00000000  0.00000000
   0.66666667  0.33333333  0.00000000
   0.66666667  0.66666667  0.00000000
   0.11111111  0.11111111  0.07819471
   0.11111111  0.44444444  0.07819471
   0.11111111  0.77777778  0.07819471
   0.44444444  0.11111111  0.07819471
   0.44444444  0.44444444  0.07819471
   0.44444444  0.77777778  0.07819471
   0.77777778  0.11111111  0.07819471
   0.77777778  0.44444444  0.07819471
   0.77777778  0.77777778  0.07819471
   0.22192626  0.22192626  0.15719069
   0.21930833  0.55714538  0.15787766
   0.22082670  0.89056341  0.15761330
   0.55714538  0.21930833  0.15787766
   0.55503664  0.55503664  0.15703255
   0.55694027  0.88931809  0.15784559
   0.89056341  0.22082670  0.15761330
   0.88931809  0.55694027  0.15784559
   0.88849403  0.88849403  0.15950309
  -0.00041038 -0.00041038  0.24493310
   0.99260183  0.34075822  0.23752595
   0.00733321  0.65472810  0.24134064
   0.34075822  0.99260183  0.23752595
   0.33349378  0.33349378  0.23657150
   0.33464864  0.66367647  0.23658977
   0.65472810  0.00733321  0.24134064
   0.66367647  0.33464864  0.23658977
   0.66524932  0.66524932  0.23604747
   0.12512310  0.12512310  0.28166585
   0.87853636  0.87853636  0.28333416
Direct configuration=    18
   0.00000000  0.00000000  0.00000000
   0.00000000  0.33333333  0.00000000
   0.00000000  0.66666667  0.00000000
   0.33333333  0.00000000  0.00000000
   0.33333333  0.33333333  0.00000000
   0.33333333  0.66666667  0.00000000
   0.66666667  0.00000000  0.00000000
   0.66666667  0.33333333  0.00000000
   0.66666667  0.66666667  0.00000000
   0.11111111  0.11111111  0.07819471
   0.11111111  0.44444444  0.07819471
   0.11111111  0.77777778  0.07819471
   0.44444444  0.11111111  0.07819471
   0.44444444  0.44444444  0.07819471
   0.44444444  0.77777778  0.07819471
   0.77777778  0.11111111  0.07819471
   0.77777778  0.44444444  0.07819471
   0.77777778  0.77777778  0.07819471
   0.22209142  0.22209142  0.15706332
   0.21975079  0.55688573  0.15772800
   0.22078812  0.89068640  0.15747039
   0.55688573  0.21975079  0.15772800
   0.55490058  0.55490058  0.15687790
   0.55693159  0.88906032  0.15771101
   0.89068640  0.22078812  0.15747039
   0.88906032  0.55693159  0.15771101
   0.88855720  0.88855720  0.15975224
   0.00208381  0.00208381  0.24577263
   0.99091144  0.34122521  0.23713564
   0.00872996  0.65337633  0.23942649
   0.34122521  0.99091144  0.23713564
   0.33261883  0.33261883  0.23680671
   0.33523453  0.66294065  0.23658466
   0.65337633  0.00872996  0.23942649
   0.66294065  0.33523453  0.23658466
   0.66521787  0.66521787  0.23619401
   0.12540340  0.12540340  0.28126410
   0.87731502  0.87731502  0.28236340
Direct configuration=    19
   0.00000000  0.00000000  0.00000000
   0.00000000  0.33333333  0.00000000
   0.00000000  0.66666667  0.00000000
   0.33333333  0.00000000  0.00000000
   0.33333333  0.33333333  0.00000000
   0.33333333  0.66666667  0.00000000
   0.66666667  0.00000000  0.00000000
   0.66666667  0.33333333  0.00000000
   0.66666667  0.66666667  0.00000000
   0.11111111  0.11111111  0.07819471
   0.11111111  0.44444444  0.07819471
   0.11111111  0.77777778  0.07819471
   0.44444444  0.11111111  0.07819471
   0.44444444  0.44444444  0.07819471
   0.44444444  0.77777778  0.07819471
   0.77777778  0.11111111  0.07819471
   0.77777778  0.44444444  0.07819471
   0.77777778  0.77777778  0.07819471
   0.22205538  0.22205538  0.15709112
   0.21965424  0.55694239  0.15776065
   0.22079654  0.89065956  0.15750157
   0.55694239  0.21965424  0.15776065
   0.55493027  0.55493027  0.15691165
   0.55693349  0.88911657  0.15774037
   0.89065956  0.22079654  0.15750157
   0.88911657  0.55693349  0.15774037
   0.88854341  0.88854341  0.15969788
   0.00153955  0.00153955  0.24558944
   0.99128030  0.34112331  0.23722081
   0.00842518  0.65367130  0.23984418
   0.34112331  0.99128030  0.23722081
   0.33280975  0.33280975  0.23675539
   0.33510668  0.66310121  0.23658578
   0.65367130  0.00842518  0.23984418
   0.66310121  0.33510668  0.23658578
   0.66522473  0.66522473  0.23616203
   0.12534223  0.12534223  0.28135177
   0.87758153  0.87758153  0.28257523
Direct configuration=    20
   0.00000000  0.00000000  0.00000000
   0.00000000  0.33333333  0.00000000
   0.00000000  0.66666667  0.00000000
   0.33333333  0.00000000  0.00000000
   0.33333333  0.33333333  0.00000000
   0.33333333  0.66666667  0.00000000
   0.66666667  0.00000000  0.00000000
   0.66666667  0.33333333  0.00000000
   0.66666667  0.66666667  0.00000000
   0.11111111  0.11111111  0.07819471
   0.11111111  0.44444444  0.07819471
   0.11111111  0.77777778  0.07819471
   0.44444444  0.11111111  0.07819471
   0.44444444  0.44444444  0.07819471
   0.44444444  0.77777778  0.07819471
   0.77777778  0.11111111  0.07819471
   0.77777778  0.44444444  0.07819471
   0.77777778  0.77777778  0.07819471
   0.22207909  0.22207909  0.15701649
   0.22023981  0.55644545  0.15752801
   0.22055633  0.89066212  0.15742602
   0.55644545  0.22023981  0.15752801
   0.55495049  0.55495049  0.15693115
   0.55675497  0.88892225  0.15743697
   0.89066212  0.22055633  0.15742602
   0.88892225  0.55675497  0.15743697
   0.88892642  0.88892642  0.15936724
   0.00166533  0.00166533  0.24583909
   0.99048574  0.34230501  0.23688905
   0.00795941  0.65436231  0.23894599
   0.34230501  0.99048574  0.23688905
   0.33223205  0.33223205  0.23686381
   0.33547766  0.66253701  0.23653328
   0.65436231  0.00795941  0.23894599
   0.66253701  0.33547766  0.23653328
   0.66538628  0.66538628  0.23627105
   0.12604971  0.12604971  0.28160679
   0.87644822  0.87644822  0.28191686
Direct configuration=    21
   0.00000000  0.00000000  0.00000000
   0.00000000  0.33333333  0.00000000
   0.00000000  0.66666667  0.00000000
   0.33333333  0.00000000  0.00000000
   0.33333333  0.33333333  0.00000000
   0.33333333  0.66666667  0.00000000
   0.66666667  0.00000000  0.00000000
   0.66666667  0.33333333  0.00000000
   0.66666667  0.66666667  0.00000000