  17  17   1   0
  0.3364036E+02  0.5019695E-09  0.5019695E-09  0.2620742E-08  0.5000000E-15
  1.000000000000000E-004
  CAR 
 unknown system                          
     12.23812946    -75.92638272  301     -1.03351004      1.00000000
    -75.926  0.0000E+00  0.0000E+00
    -75.633  0.0000E+00  0.0000E+00
    -75.339  0.0000E+00  0.0000E+00
    -75.045  0.0000E+00  0.0000E+00
    -74.751  0.0000E+00  0.0000E+00
    -74.457  0.0000E+00  0.0000E+00
    -74.163  0.0000E+00  0.0000E+00
    -73.869  0.0000E+00  0.0000E+00
    -73.575  0.0000E+00  0.0000E+00
    -73.281  0.0000E+00  0.0000E+00
    -72.988  0.0000E+00  0.0000E+00
    -72.694  0.0000E+00  0.0000E+00
    -72.400  0.8011E-13  0.2354E-13
    -72.106  0.1360E-03  0.3995E-04
    -71.812  0.1094E+00  0.3218E-01
    -71.518  0.1750E+00  0.8363E-01
    -71.224  0.2788E+00  0.1655E+00
    -70.930  0.1060E+01  0.4770E+00
    -70.637  0.5307E+00  0.6330E+00
    -70.343  0.2386E-01  0.6400E+00
    -70.049  0.2329E-06  0.6400E+00
    -69.755  0.0000E+00  0.6400E+00
    -69.461  0.0000E+00  0.6400E+00
    -69.167  0.0000E+00  0.6400E+00
    -68.873  0.0000E+00  0.6400E+00
    -68.579  0.0000E+00  0.6400E+00
    -68.285  0.0000E+00  0.6400E+00
    -67.992  0.0000E+00  0.6400E+00
    -67.698  0.0000E+00  0.6400E+00
    -67.404  0.0000E+00  0.6400E+00
    -67.110  0.0000E+00  0.6400E+00
    -66.816  0.0000E+00  0.6400E+00
    -66.522  0.0000E+00  0.6400E+00
    -66.228  0.0000E+00  0.6400E+00
    -65.934  0.0000E+00  0.6400E+00
    -65.641  0.0000E+00  0.6400E+00
    -65.347  0.0000E+00  0.6400E+00
    -65.053  0.0000E+00  0.6400E+00
    -64.759  0.0000E+00  0.6400E+00
    -64.465  0.0000E+00  0.6400E+00
    -64.171  0.0000E+00  0.6400E+00
    -63.877  0.0000E+00  0.6400E+00
    -63.583  0.0000E+00  0.6400E+00
    -63.289  0.0000E+00  0.6400E+00
    -62.996  0.0000E+00  0.6400E+00
    -62.702  0.0000E+00  0.6400E+00
    -62.408  0.0000E+00  0.6400E+00
    -62.114  0.0000E+00  0.6400E+00
    -61.820  0.0000E+00  0.6400E+00
    -61.526  0.0000E+00  0.6400E+00
    -61.232  0.0000E+00  0.6400E+00
    -60.938  0.0000E+00  0.6400E+00
    -60.645  0.0000E+00  0.6400E+00
    -60.351  0.0000E+00  0.6400E+00
    -60.057  0.0000E+00  0.6400E+00
    -59.763  0.0000E+00  0.6400E+00
    -59.469  0.0000E+00  0.6400E+00
    -59.175  0.0000E+00  0.6400E+00
    -58.881  0.0000E+00  0.6400E+00
    -58.587  0.0000E+00  0.6400E+00
    -58.293  0.0000E+00  0.6400E+00
    -58.000  0.0000E+00  0.6400E+00
    -57.706  0.0000E+00  0.6400E+00
    -57.412  0.0000E+00  0.6400E+00
    -57.118  0.0000E+00  0.6400E+00
    -56.824  0.0000E+00  0.6400E+00
    -56.530  0.0000E+00  0.6400E+00
    -56.236  0.0000E+00  0.6400E+00
    -55.942  0.0000E+00  0.6400E+00
    -55.649  0.0000E+00  0.6400E+00
    -55.355  0.0000E+00  0.6400E+00
    -55.061  0.0000E+00  0.6400E+00
    -54.767  0.0000E+00  0.6400E+00
    -54.473  0.0000E+00  0.6400E+00
    -54.179  0.0000E+00  0.6400E+00
    -53.885  0.0000E+00  0.6400E+00
    -53.591  0.0000E+00  0.6400E+00
    -53.297  0.0000E+00  0.6400E+00
    -53.004  0.0000E+00  0.6400E+00
    -52.710  0.0000E+00  0.6400E+00
    -52.416  0.0000E+00  0.6400E+00
    -52.122  0.0000E+00  0.6400E+00
    -51.828  0.0000E+00  0.6400E+00
    -51.534  0.0000E+00  0.6400E+00
    -51.240  0.0000E+00  0.6400E+00
    -50.946  0.0000E+00  0.6400E+00
    -50.653  0.0000E+00  0.6400E+00
    -50.359  0.0000E+00  0.6400E+00
    -50.065  0.0000E+00  0.6400E+00
    -49.771  0.0000E+00  0.6400E+00
    -49.477  0.0000E+00  0.6400E+00
    -49.183  0.0000E+00  0.6400E+00
    -48.889  0.0000E+00  0.6400E+00
    -48.595  0.0000E+00  0.6400E+00
    -48.302  0.0000E+00  0.6400E+00
    -48.008  0.0000E+00  0.6400E+00
    -47.714  0.0000E+00  0.6400E+00
    -47.420  0.0000E+00  0.6400E+00
    -47.126  0.0000E+00  0.6400E+00
    -46.832  0.0000E+00  0.6400E+00
    -46.538  0.0000E+00  0.6400E+00
    -46.244  0.0000E+00  0.6400E+00
    -45.950  0.0000E+00  0.6400E+00
    -45.657  0.0000E+00  0.6400E+00
    -45.363  0.0000E+00  0.6400E+00
    -45.069  0.0000E+00  0.6400E+00
    -44.775  0.0000E+00  0.6400E+00
    -44.481  0.0000E+00  0.6400E+00
    -44.187  0.0000E+00  0.6400E+00
    -43.893  0.0000E+00  0.6400E+00
    -43.599  0.0000E+00  0.6400E+00
    -43.306  0.0000E+00  0.6400E+00
    -43.012  0.0000E+00  0.6400E+00
    -42.718  0.0000E+00  0.6400E+00
    -42.424  0.0000E+00  0.6400E+00
    -42.130  0.0000E+00  0.6400E+00
    -41.836  0.0000E+00  0.6400E+00
    -41.542  0.0000E+00  0.6400E+00
    -41.248  0.0000E+00  0.6400E+00
    -40.954  0.0000E+00  0.6400E+00
    -40.661  0.0000E+00  0.6400E+00
    -40.367  0.0000E+00  0.6400E+00
    -40.073  0.0000E+00  0.6400E+00
    -39.779  0.0000E+00  0.6400E+00
    -39.485  0.0000E+00  0.6400E+00
    -39.191  0.0000E+00  0.6400E+00
    -38.897  0.0000E+00  0.6400E+00
    -38.603  0.0000E+00  0.6400E+00
    -38.310  0.0000E+00  0.6400E+00
    -38.016  0.0000E+00  0.6400E+00
    -37.722  0.0000E+00  0.6400E+00
    -37.428  0.0000E+00  0.6400E+00
    -37.134  0.0000E+00  0.6400E+00
    -36.840  0.0000E+00  0.6400E+00
    -36.546  0.0000E+00  0.6400E+00
    -36.252  0.0000E+00  0.6400E+00
    -35.958  0.0000E+00  0.6400E+00
    -35.665  0.0000E+00  0.6400E+00
    -35.371  0.0000E+00  0.6400E+00
    -35.077  0.0000E+00  0.6400E+00
    -34.783  0.0000E+00  0.6400E+00
    -34.489  0.0000E+00  0.6400E+00
    -34.195  0.0000E+00  0.6400E+00
    -33.901  0.0000E+00  0.6400E+00
    -33.607  0.0000E+00  0.6400E+00
    -33.314  0.0000E+00  0.6400E+00
    -33.020  0.0000E+00  0.6400E+00
    -32.726  0.0000E+00  0.6400E+00
    -32.432  0.0000E+00  0.6400E+00
    -32.138  0.0000E+00  0.6400E+00
    -31.844  0.0000E+00  0.6400E+00
    -31.550  0.0000E+00  0.6400E+00
    -31.256  0.0000E+00  0.6400E+00
    -30.962  0.0000E+00  0.6400E+00
    -30.669  0.0000E+00  0.6400E+00
    -30.375  0.0000E+00  0.6400E+00
    -30.081  0.0000E+00  0.6400E+00
    -29.787  0.0000E+00  0.6400E+00
    -29.493  0.0000E+00  0.6400E+00
    -29.199  0.0000E+00  0.6400E+00
    -28.905  0.0000E+00  0.6400E+00
    -28.611  0.0000E+00  0.6400E+00
    -28.318  0.0000E+00  0.6400E+00
    -28.024  0.0000E+00  0.6400E+00
    -27.730  0.0000E+00  0.6400E+00
    -27.436  0.0000E+00  0.6400E+00
    -27.142  0.0000E+00  0.6400E+00
    -26.848  0.0000E+00  0.6400E+00
    -26.554  0.0000E+00  0.6400E+00
    -26.260  0.0000E+00  0.6400E+00
    -25.966  0.0000E+00  0.6400E+00
    -25.673  0.0000E+00  0.6400E+00
    -25.379  0.0000E+00  0.6400E+00
    -25.085  0.0000E+00  0.6400E+00
    -24.791  0.0000E+00  0.6400E+00
    -24.497  0.0000E+00  0.6400E+00
    -24.203  0.0000E+00  0.6400E+00
    -23.909  0.0000E+00  0.6400E+00
    -23.615  0.0000E+00  0.6400E+00
    -23.322  0.0000E+00  0.6400E+00
    -23.028  0.0000E+00  0.6400E+00
    -22.734  0.0000E+00  0.6400E+00
    -22.440  0.0000E+00  0.6400E+00
    -22.146  0.0000E+00  0.6400E+00
    -21.852  0.0000E+00  0.6400E+00
    -21.558  0.0000E+00  0.6400E+00
    -21.264  0.0000E+00  0.6400E+00
    -20.971  0.0000E+00  0.6400E+00
    -20.677  0.0000E+00  0.6400E+00
    -20.383  0.0000E+00  0.6400E+00
    -20.089  0.0000E+00  0.6400E+00
    -19.795  0.0000E+00  0.6400E+00
    -19.501  0.0000E+00  0.6400E+00
    -19.207  0.0000E+00  0.6400E+00
    -18.913  0.0000E+00  0.6400E+00
    -18.619  0.0000E+00  0.6400E+00
    -18.326  0.0000E+00  0.6400E+00
    -18.032  0.0000E+00  0.6400E+00
    -17.738  0.0000E+00  0.6400E+00
    -17.444  0.0000E+00  0.6400E+00
    -17.150  0.0000E+00  0.6400E+00
    -16.856  0.0000E+00  0.6400E+00
    -16.562  0.0000E+00  0.6400E+00
    -16.268  0.0000E+00  0.6400E+00
    -15.975  0.0000E+00  0.6400E+00
    -15.681  0.0000E+00  0.6400E+00
    -15.387  0.0000E+00  0.6400E+00
    -15.093  0.0000E+00  0.6400E+00
    -14.799  0.0000E+00  0.6400E+00
    -14.505  0.0000E+00  0.6400E+00
    -14.211  0.0000E+00  0.6400E+00
    -13.917  0.0000E+00  0.6400E+00
    -13.623  0.0000E+00  0.6400E+00
    -13.330  0.0000E+00  0.6400E+00
    -13.036  0.3638E-17  0.6400E+00
    -12.742  0.1815E-06  0.6400E+00
    -12.448  0.3780E-02  0.6411E+00
    -12.154  0.3674E-01  0.6519E+00
    -11.860  0.4844E-02  0.6533E+00
    -11.566  0.1152E-07  0.6533E+00
    -11.272  0.0000E+00  0.6533E+00
    -10.979  0.0000E+00  0.6533E+00
    -10.685  0.2694E-12  0.6533E+00
    -10.391  0.2322E-04  0.6533E+00
    -10.097  0.2430E-02  0.6541E+00
     -9.803  0.6379E-02  0.6559E+00
     -9.509  0.7236E-02  0.6581E+00
     -9.215  0.7835E-02  0.6604E+00
     -8.921  0.5433E-03  0.6605E+00
     -8.627  0.1654E-01  0.6654E+00
     -8.334  0.1331E-01  0.6693E+00
     -8.040  0.1371E-01  0.6733E+00
     -7.746  0.1881E-01  0.6788E+00
     -7.452  0.2313E-01  0.6856E+00
     -7.158  0.1142E-01  0.6890E+00
     -6.864  0.2765E-01  0.6971E+00
     -6.570  0.5126E-01  0.7122E+00
     -6.276  0.6223E-01  0.7305E+00
     -5.983  0.1044E+00  0.7612E+00
     -5.689  0.1365E+00  0.8013E+00
     -5.395  0.2052E+00  0.8616E+00
     -5.101  0.2032E+00  0.9213E+00
     -4.807  0.2273E+00  0.9881E+00
     -4.513  0.2540E+00  0.1063E+01
     -4.219  0.3238E+00  0.1158E+01
     -3.925  0.3965E+00  0.1274E+01
     -3.631  0.3297E+00  0.1371E+01
     -3.338  0.3254E+00  0.1467E+01
     -3.044  0.3707E+00  0.1576E+01
     -2.750  0.4253E+00  0.1701E+01
     -2.456  0.2460E+00  0.1773E+01
     -2.162  0.6540E-01  0.1792E+01
     -1.868  0.4405E-01  0.1805E+01
     -1.574  0.4439E-01  0.1818E+01
     -1.280  0.4184E-01  0.1831E+01
     -0.987  0.4175E-01  0.1843E+01
     -0.693  0.5484E-01  0.1859E+01
     -0.399  0.1063E-01  0.1862E+01
     -0.105  0.3829E-01  0.1873E+01
      0.189  0.3911E-01  0.1885E+01
      0.483  0.3362E-01  0.1895E+01
      0.777  0.3477E-01  0.1905E+01
      1.071  0.4561E-01  0.1918E+01
      1.365  0.3032E-01  0.1927E+01
      1.658  0.2234E-01  0.1934E+01
      1.952  0.3547E-01  0.1944E+01
      2.246  0.2804E-01  0.1953E+01
      2.540  0.2116E-01  0.1959E+01
      2.834  0.2009E-01  0.1965E+01
      3.128  0.2779E-01  0.1973E+01
      3.422  0.1824E-01  0.1978E+01
      3.716  0.3556E-01  0.1989E+01
      4.009  0.3443E-01  0.1999E+01
      4.303  0.3869E-01  0.2010E+01
      4.597  0.3367E-01  0.2020E+01
      4.891  0.5746E-01  0.2037E+01
      5.185  0.5217E-01  0.2052E+01
      5.479  0.6183E-01  0.2070E+01
      5.773  0.4890E-01  0.2085E+01
      6.067  0.6054E-01  0.2103E+01
      6.360  0.5720E-01  0.2119E+01
      6.654  0.6125E-01  0.2137E+01
      6.948  0.6597E-01  0.2157E+01
      7.242  0.7968E-01  0.2180E+01
      7.536  0.7292E-01  0.2202E+01
      7.830  0.6484E-01  0.2221E+01
      8.124  0.4618E-01  0.2234E+01
      8.418  0.1927E-01  0.2240E+01
      8.712  0.5202E-04  0.2240E+01
      9.005  0.5420E-13  0.2240E+01
      9.299  0.0000E+00  0.2240E+01
      9.593  0.0000E+00  0.2240E+01
      9.887  0.0000E+00  0.2240E+01
     10.181  0.0000E+00  0.2240E+01
     10.475  0.0000E+00  0.2240E+01
     10.769  0.0000E+00  0.2240E+01
     11.063  0.0000E+00  0.2240E+01
     11.356  0.0000E+00  0.2240E+01
     11.650  0.0000E+00  0.2240E+01
     11.944  0.0000E+00  0.2240E+01
     12.238  0.0000E+00  0.2240E+01
     12.23812946    -75.92638272  301     -1.03351004      1.00000000
    -75.926  0.0000E+00  0.0000E+00  0.0000E+00
    -75.633  0.0000E+00  0.0000E+00  0.0000E+00
    -75.339  0.0000E+00  0.0000E+00  0.0000E+00
    -75.045  0.0000E+00  0.0000E+00  0.0000E+00
    -74.751  0.0000E+00  0.0000E+00  0.0000E+00
    -74.457  0.0000E+00  0.0000E+00  0.0000E+00
    -74.163  0.0000E+00  0.0000E+00  0.0000E+00
    -73.869  0.0000E+00  0.0000E+00  0.0000E+00
    -73.575  0.0000E+00  0.0000E+00  0.0000E+00
    -73.281  0.0000E+00  0.0000E+00  0.0000E+00
    -72.988  0.0000E+00  0.0000E+00  0.0000E+00
    -72.694  0.0000E+00  0.0000E+00  0.0000E+00
    -72.400  0.2595E-21  0.2022E-19  0.2012E-19
    -72.106  0.5098E-12  0.3521E-10  0.3743E-10
    -71.812  0.3913E-09  0.3233E-07  0.3123E-07
    -71.518  0.5866E-09  0.2239E-06  0.4135E-07
    -71.224  0.3151E-05  0.1793E-01  0.5135E-05
    -70.930  0.1905E-04  0.7752E+01  0.3834E-04
    -70.637  0.2858E-04  0.1257E+02  0.3959E-04
    -70.343  0.3114E-07  0.1150E-01  0.2475E-07
    -70.049  0.2785E-14  0.1265E-10  0.5196E-13
    -69.755  0.0000E+00  0.0000E+00  0.0000E+00
    -69.461  0.0000E+00  0.0000E+00  0.0000E+00
    -69.167  0.0000E+00  0.0000E+00  0.0000E+00
    -68.873  0.0000E+00  0.0000E+00  0.0000E+00
    -68.579  0.0000E+00  0.0000E+00  0.0000E+00
    -68.285  0.0000E+00  0.0000E+00  0.0000E+00
    -67.992  0.0000E+00  0.0000E+00  0.0000E+00
    -67.698  0.0000E+00  0.0000E+00  0.0000E+00
    -67.404  0.0000E+00  0.0000E+00  0.0000E+00
    -67.110  0.0000E+00  0.0000E+00  0.0000E+00
    -66.816  0.0000E+00  0.0000E+00  0.0000E+00
    -66.522  0.0000E+00  0.0000E+00  0.0000E+00
    -66.228  0.0000E+00  0.0000E+00  0.0000E+00
    -65.934  0.0000E+00  0.0000E+00  0.0000E+00
    -65.641  0.0000E+00  0.0000E+00  0.0000E+00
    -65.347  0.0000E+00  0.0000E+00  0.0000E+00
    -65.053  0.0000E+00  0.0000E+00  0.0000E+00
    -64.759  0.0000E+00  0.0000E+00  0.0000E+00
    -64.465  0.0000E+00  0.0000E+00  0.0000E+00
    -64.171  0.0000E+00  0.0000E+00  0.0000E+00
    -63.877  0.0000E+00  0.0000E+00  0.0000E+00
    -63.583  0.0000E+00  0.0000E+00  0.0000E+00
    -63.289  0.0000E+00  0.0000E+00  0.0000E+00
    -62.996  0.0000E+00  0.0000E+00  0.0000E+00
    -62.702  0.0000E+00  0.0000E+00  0.0000E+00
    -62.408  0.0000E+00  0.0000E+00  0.0000E+00
    -62.114  0.0000E+00  0.0000E+00  0.0000E+00
    -61.820  0.0000E+00  0.0000E+00  0.0000E+00
    -61.526  0.0000E+00  0.0000E+00  0.0000E+00
    -61.232  0.0000E+00  0.0000E+00  0.0000E+00
    -60.938  0.0000E+00  0.0000E+00  0.0000E+00
    -60.645  0.0000E+00  0.0000E+00  0.0000E+00
    -60.351  0.0000E+00  0.0000E+00  0.0000E+00
    -60.057  0.0000E+00  0.0000E+00  0.0000E+00
    -59.763  0.0000E+00  0.0000E+00  0.0000E+00
    -59.469  0.0000E+00  0.0000E+00  0.0000E+00
    -59.175  0.0000E+00  0.0000E+00  0.0000E+00
    -58.881  0.0000E+00  0.0000E+00  0.0000E+00
    -58.587  0.0000E+00  0.0000E+00  0.0000E+00
    -58.293  0.0000E+00  0.0000E+00  0.0000E+00
    -58.000  0.0000E+00  0.0000E+00  0.0000E+00
    -57.706  0.0000E+00  0.0000E+00  0.0000E+00
    -57.412  0.0000E+00  0.0000E+00  0.0000E+00
    -57.118  0.0000E+00  0.0000E+00  0.0000E+00
    -56.824  0.0000E+00  0.0000E+00  0.0000E+00
    -56.530  0.0000E+00  0.0000E+00  0.0000E+00
    -56.236  0.0000E+00  0.0000E+00  0.0000E+00
    -55.942  0.0000E+00  0.0000E+00  0.0000E+00
    -55.649  0.0000E+00  0.0000E+00  0.0000E+00
    -55.355  0.0000E+00  0.0000E+00  0.0000E+00
    -55.061  0.0000E+00  0.0000E+00  0.0000E+00
    -54.767  0.0000E+00  0.0000E+00  0.0000E+00
    -54.473  0.0000E+00  0.0000E+00  0.0000E+00
    -54.179  0.0000E+00  0.0000E+00  0.0000E+00
    -53.885  0.0000E+00  0.0000E+00  0.0000E+00
    -53.591  0.0000E+00  0.0000E+00  0.0000E+00
    -53.297  0.0000E+00  0.0000E+00  0.0000E+00
    -53.004  0.0000E+00  0.0000E+00  0.0000E+00
    -52.710  0.0000E+00  0.0000E+00  0.0000E+00
    -52.416  0.0000E+00  0.0000E+00  0.0000E+00
    -52.122  0.0000E+00  0.0000E+00  0.0000E+00
    -51.828  0.0000E+00  0.0000E+00  0.0000E+00
    -51.534  0.0000E+00  0.0000E+00  0.0000E+00
    -51.240  0.0000E+00  0.0000E+00  0.0000E+00
    -50.946  0.0000E+00  0.0000E+00  0.0000E+00
    -50.653  0.0000E+00  0.0000E+00  0.0000E+00
    -50.359  0.0000E+00  0.0000E+00  0.0000E+00
    -50.065  0.0000E+00  0.0000E+00  0.0000E+00
    -49.771  0.0000E+00  0.0000E+00  0.0000E+00
    -49.477  0.0000E+00  0.0000E+00  0.0000E+00
    -49.183  0.0000E+00  0.0000E+00  0.0000E+00
    -48.889  0.0000E+00  0.0000E+00  0.0000E+00
    -48.595  0.0000E+00  0.0000E+00  0.0000E+00
    -48.302  0.0000E+00  0.0000E+00  0.0000E+00
    -48.008  0.0000E+00  0.0000E+00  0.0000E+00
    -47.714  0.0000E+00  0.0000E+00  0.0000E+00
    -47.420  0.0000E+00  0.0000E+00  0.0000E+00
    -47.126  0.0000E+00  0.0000E+00  0.0000E+00
    -46.832  0.0000E+00  0.0000E+00  0.0000E+00
    -46.538  0.0000E+00  0.0000E+00  0.0000E+00
    -46.244  0.0000E+00  0.0000E+00  0.0000E+00
    -45.950  0.0000E+00  0.0000E+00  0.0000E+00
    -45.657  0.0000E+00  0.0000E+00  0.0000E+00
    -45.363  0.0000E+00  0.0000E+00  0.0000E+00
    -45.069  0.0000E+00  0.0000E+00  0.0000E+00
    -44.775  0.0000E+00  0.0000E+00  0.0000E+00
    -44.481  0.0000E+00  0.0000E+00  0.0000E+00
    -44.187  0.0000E+00  0.0000E+00  0.0000E+00
    -43.893  0.0000E+00  0.0000E+00  0.0000E+00
    -43.599  0.0000E+00  0.0000E+00  0.0000E+00
    -43.306  0.0000E+00  0.0000E+00  0.0000E+00
    -43.012  0.0000E+00  0.0000E+00  0.0000E+00
    -42.718  0.0000E+00  0.0000E+00  0.0000E+00
    -42.424  0.0000E+00  0.0000E+00  0.0000E+00
    -42.130  0.0000E+00  0.0000E+00  0.0000E+00
    -41.836  0.0000E+00  0.0000E+00  0.0000E+00
    -41.542  0.0000E+00  0.0000E+00  0.0000E+00
    -41.248  0.0000E+00  0.0000E+00  0.0000E+00
    -40.954  0.0000E+00  0.0000E+00  0.0000E+00
    -40.661  0.0000E+00  0.0000E+00  0.0000E+00
    -40.367  0.0000E+00  0.0000E+00  0.0000E+00
    -40.073  0.0000E+00  0.0000E+00  0.0000E+00
    -39.779  0.0000E+00  0.0000E+00  0.0000E+00
    -39.485  0.0000E+00  0.0000E+00  0.0000E+00
    -39.191  0.0000E+00  0.0000E+00  0.0000E+00
    -38.897  0.0000E+00  0.0000E+00  0.0000E+00
    -38.603  0.0000E+00  0.0000E+00  0.0000E+00
    -38.310  0.0000E+00  0.0000E+00  0.0000E+00
    -38.016  0.0000E+00  0.0000E+00  0.0000E+00
    -37.722  0.0000E+00  0.0000E+00  0.0000E+00
    -37.428  0.0000E+00  0.0000E+00  0.0000E+00
    -37.134  0.0000E+00  0.0000E+00  0.0000E+00
    -36.840  0.0000E+00  0.0000E+00  0.0000E+00
    -36.546  0.0000E+00  0.0000E+00  0.0000E+00
    -36.252  0.0000E+00  0.0000E+00  0.0000E+00
    -35.958  0.0000E+00  0.0000E+00  0.0000E+00
    -35.665  0.0000E+00  0.0000E+00  0.0000E+00
    -35.371  0.0000E+00  0.0000E+00  0.0000E+00
    -35.077  0.0000E+00  0.0000E+00  0.0000E+00
    -34.783  0.0000E+00  0.0000E+00  0.0000E+00
    -34.489  0.0000E+00  0.0000E+00  0.0000E+00
    -34.195  0.0000E+00  0.0000E+00  0.0000E+00
    -33.901  0.0000E+00  0.0000E+00  0.0000E+00
    -33.607  0.0000E+00  0.0000E+00  0.0000E+00
    -33.314  0.0000E+00  0.0000E+00  0.0000E+00
    -33.020  0.0000E+00  0.0000E+00  0.0000E+00
    -32.726  0.0000E+00  0.0000E+00  0.0000E+00
    -32.432  0.0000E+00  0.0000E+00  0.0000E+00
    -32.138  0.0000E+00  0.0000E+00  0.0000E+00
    -31.844  0.0000E+00  0.0000E+00  0.0000E+00
    -31.550  0.0000E+00  0.0000E+00  0.0000E+00
    -31.256  0.0000E+00  0.0000E+00  0.0000E+00
    -30.962  0.0000E+00  0.0000E+00  0.0000E+00
    -30.669  0.0000E+00  0.0000E+00  0.0000E+00
    -30.375  0.0000E+00  0.0000E+00  0.0000E+00
    -30.081  0.0000E+00  0.0000E+00  0.0000E+00
    -29.787  0.0000E+00  0.0000E+00  0.0000E+00
    -29.493  0.0000E+00  0.0000E+00  0.0000E+00
    -29.199  0.0000E+00  0.0000E+00  0.0000E+00
    -28.905  0.0000E+00  0.0000E+00  0.0000E+00
    -28.611  0.0000E+00  0.0000E+00  0.0000E+00
    -28.318  0.0000E+00  0.0000E+00  0.0000E+00
    -28.024  0.0000E+00  0.0000E+00  0.0000E+00
    -27.730  0.0000E+00  0.0000E+00  0.0000E+00
    -27.436  0.0000E+00  0.0000E+00  0.0000E+00
    -27.142  0.0000E+00  0.0000E+00  0.0000E+00
    -26.848  0.0000E+00  0.0000E+00  0.0000E+00
    -26.554  0.0000E+00  0.0000E+00  0.0000E+00
    -26.260  0.0000E+00  0.0000E+00  0.0000E+00
    -25.966  0.0000E+00  0.0000E+00  0.0000E+00
    -25.673  0.0000E+00  0.0000E+00  0.0000E+00
    -25.379  0.0000E+00  0.0000E+00  0.0000E+00
    -25.085  0.0000E+00  0.0000E+00  0.0000E+00
    -24.791  0.0000E+00  0.0000E+00  0.0000E+00
    -24.497  0.0000E+00  0.0000E+00  0.0000E+00
    -24.203  0.0000E+00  0.0000E+00  0.0000E+00
    -23.909  0.0000E+00  0.0000E+00  0.0000E+00
    -23.615  0.0000E+00  0.0000E+00  0.0000E+00
    -23.322  0.0000E+00  0.0000E+00  0.0000E+00
    -23.028  0.0000E+00  0.0000E+00  0.0000E+00
    -22.734  0.0000E+00  0.0000E+00  0.0000E+00
    -22.440  0.0000E+00  0.0000E+00  0.0000E+00
    -22.146  0.0000E+00  0.0000E+00  0.0000E+00
    -21.852  0.0000E+00  0.0000E+00  0.0000E+00
    -21.558  0.0000E+00  0.0000E+00  0.0000E+00
    -21.264  0.0000E+00  0.0000E+00  0.0000E+00
    -20.971  0.0000E+00  0.0000E+00  0.0000E+00
    -20.677  0.0000E+00  0.0000E+00  0.0000E+00
    -20.383  0.0000E+00  0.0000E+00  0.0000E+00
    -20.089  0.0000E+00  0.0000E+00  0.0000E+00
    -19.795  0.0000E+00  0.0000E+00  0.0000E+00
    -19.501  0.0000E+00  0.0000E+00  0.0000E+00
    -19.207  0.0000E+00  0.0000E+00  0.0000E+00
    -18.913  0.0000E+00  0.0000E+00  0.0000E+00
    -18.619  0.0000E+00  0.0000E+00  0.0000E+00
    -18.326  0.0000E+00  0.0000E+00  0.0000E+00
    -18.032  0.0000E+00  0.0000E+00  0.0000E+00
    -17.738  0.0000E+00  0.0000E+00  0.0000E+00
    -17.444  0.0000E+00  0.0000E+00  0.0000E+00
    -17.150  0.0000E+00  0.0000E+00  0.0000E+00
    -16.856  0.0000E+00  0.0000E+00  0.0000E+00
    -16.562  0.0000E+00  0.0000E+00  0.0000E+00
    -16.268  0.0000E+00  0.0000E+00  0.0000E+00
    -15.975  0.0000E+00  0.0000E+00  0.0000E+00
    -15.681  0.0000E+00  0.0000E+00  0.0000E+00
    -15.387  0.0000E+00  0.0000E+00  0.0000E+00
    -15.093  0.0000E+00  0.0000E+00  0.0000E+00
    -14.799  0.0000E+00  0.0000E+00  0.0000E+00
    -14.505  0.0000E+00  0.0000E+00  0.0000E+00
    -14.211  0.0000E+00  0.0000E+00  0.0000E+00
    -13.917  0.0000E+00  0.0000E+00  0.0000E+00
    -13.623  0.0000E+00  0.0000E+00  0.0000E+00
    -13.330  0.0000E+00  0.0000E+00  0.0000E+00
    -13.036  0.4857E-20  0.9214E-21  0.1072E-21
    -12.742  0.2330E-09  0.4459E-10  0.5449E-11
    -12.448  0.3376E-05  0.7036E-06  0.1257E-06
    -12.154  0.8561E-05  0.2224E-05  0.8697E-06
    -11.860  0.1702E-06  0.7907E-07  0.7658E-07
    -11.566  0.1350E-12  0.1018E-12  0.1450E-12
    -11.272  0.0000E+00  0.0000E+00  0.0000E+00
    -10.979  0.0000E+00  0.0000E+00  0.0000E+00
    -10.685  0.5655E-12  0.4937E-13  0.4929E-15
    -10.391  0.4873E-04  0.4255E-05  0.4249E-07
    -10.097  0.4977E-02  0.4817E-03  0.2426E-04
     -9.803  0.1274E-01  0.1359E-02  0.1158E-03
     -9.509  0.1299E-01  0.1913E-02  0.4635E-03
     -9.215  0.1341E-01  0.2202E-02  0.6999E-03
     -8.921  0.7909E-03  0.1741E-03  0.1044E-03
     -8.627  0.2901E-01  0.5003E-02  0.3447E-02
     -8.334  0.3632E-01  0.3400E-02  0.3606E-02
     -8.040  0.4385E-01  0.4856E-02  0.3497E-02
     -7.746  0.2889E-01  0.6788E-02  0.7916E-02
     -7.452  0.5226E-01  0.1091E-01  0.1268E-01
     -7.158  0.1577E-01  0.4336E-02  0.9350E-02
     -6.864  0.5816E-01  0.9465E-02  0.3806E-01
     -6.570  0.6853E-01  0.1736E-01  0.6141E-01
     -6.276  0.6556E-01  0.1736E-01  0.9855E-01
     -5.983  0.7876E-01  0.2189E-01  0.1974E+00
     -5.689  0.6622E-01  0.2888E-01  0.3332E+00
     -5.395  0.1027E+00  0.2879E-01  0.7304E+00
     -5.101  0.3034E-01  0.2495E-01  0.9921E+00
     -4.807  0.2144E-01  0.2439E-01  0.1337E+01
     -4.513  0.1452E-01  0.2137E-01  0.1507E+01
     -4.219  0.2083E-01  0.2238E-01  0.2095E+01
     -3.925  0.3988E-01  0.4949E-01  0.3895E+01
     -3.631  0.2025E-01  0.4453E-01  0.3602E+01
     -3.338  0.2995E-01  0.5509E-01  0.2993E+01
     -3.044  0.2667E-01  0.3057E-01  0.4118E+01
     -2.750  0.1666E-01  0.2333E-01  0.4099E+01
     -2.456  0.1709E-01  0.1789E-01  0.2865E+01
     -2.162  0.3765E-01  0.1326E-01  0.5299E+00
     -1.868  0.2596E-01  0.2647E-01  0.3410E+00
     -1.574  0.1041E-01  0.1591E-01  0.8612E-01
     -1.280  0.2625E-01  0.3796E-01  0.1342E+00
     -0.987  0.4238E-01  0.5955E-01  0.1146E+00
     -0.693  0.3531E-01  0.5596E-01  0.2757E+00
     -0.399  0.1329E-01  0.1236E-01  0.2481E-01
     -0.105  0.2924E-01  0.6858E-01  0.6985E-01
      0.189  0.1932E-01  0.5813E-01  0.9651E-01
      0.483  0.3489E-01  0.4320E-01  0.1305E+00
      0.777  0.1121E-01  0.4423E-01  0.5364E-01
      1.071  0.1424E-01  0.8941E-01  0.8570E-01
      1.365  0.2882E-01  0.6043E-01  0.6302E-01
      1.658  0.1065E-01  0.5979E-01  0.3961E-01
      1.952  0.8375E-02  0.7102E-01  0.6385E-01
      2.246  0.5688E-02  0.4571E-01  0.5175E-01
      2.540  0.9165E-02  0.1760E-01  0.3295E-01
      2.834  0.6905E-02  0.8879E-02  0.3899E-01
      3.128  0.1263E-01  0.6614E-01  0.4902E-01
      3.422  0.1095E-01  0.2656E-01  0.2137E-01
      3.716  0.3559E-01  0.3083E-01  0.3987E-01
      4.009  0.3161E-01  0.2909E-01  0.6362E-01
      4.303  0.2764E-01  0.3950E-01  0.4859E-01
      4.597  0.5647E-01  0.1946E-01  0.5311E-01
      4.891  0.1113E+00  0.5729E-01  0.7733E-01
      5.185  0.8629E-01  0.4192E-01  0.8314E-01
      5.479  0.5651E-01  0.7972E-01  0.7091E-01
      5.773  0.2514E-01  0.3959E-01  0.6915E-01
      6.067  0.6644E-01  0.1024E+00  0.5843E-01
      6.360  0.4346E-01  0.5667E-01  0.4346E-01
      6.654  0.3489E-01  0.7195E-01  0.5186E-01
      6.948  0.2980E-01  0.7931E-01  0.4445E-01
      7.242  0.4903E-01  0.6334E-01  0.5236E-01
      7.536  0.5786E-01  0.8413E-01  0.6236E-01
      7.830  0.3917E-01  0.5661E-01  0.3095E-01
      8.124  0.2360E-01  0.4373E-01  0.2907E-01
      8.418  0.2112E-01  0.2270E-01  0.1264E-01
      8.712  0.7911E-04  0.6644E-04  0.4171E-04
      9.005  0.8878E-13  0.6592E-13  0.4439E-13
      9.299  0.0000E+00  0.0000E+00  0.0000E+00
      9.593  0.0000E+00  0.0000E+00  0.0000E+00
      9.887  0.0000E+00  0.0000E+00  0.0000E+00
     10.181  0.0000E+00  0.0000E+00  0.0000E+00
     10.475  0.0000E+00  0.0000E+00  0.0000E+00
     10.769  0.0000E+00  0.0000E+00  0.0000E+00
     11.063  0.0000E+00  0.0000E+00  0.0000E+00
     11.356  0.0000E+00  0.0000E+00  0.0000E+00
     11.650  0.0000E+00  0.0000E+00  0.0000E+00
     11.944  0.0000E+00  0.0000E+00  0.0000E+00
     12.238  0.0000E+00  0.0000E+00  0.0000E+00
     12.23812946    -75.92638272  301     -1.03351004      1.00000000
    -75.926  0.0000E+00  0.0000E+00  0.0000E+00
    -75.633  0.0000E+00  0.0000E+00  0.0000E+00
    -75.339  0.0000E+00  0.0000E+00  0.0000E+00
    -75.045  0.0000E+00  0.0000E+00  0.0000E+00
    -74.751  0.0000E+00  0.0000E+00  0.0000E+00
    -74.457  0.0000E+00  0.0000E+00  0.0000E+00
    -74.163  0.0000E+00  0.0000E+00  0.0000E+00
    -73.869  0.0000E+00  0.0000E+00  0.0000E+00
    -73.575  0.0000E+00  0.0000E+00  0.0000E+00
    -73.281  0.0000E+00  0.0000E+00  0.0000E+00
    -72.988  0.0000E+00  0.0000E+00  0.0000E+00
    -72.694  0.0000E+00  0.0000E+00  0.0000E+00
    -72.400  0.1421E-21  0.5139E-19  0.1536E-19
    -72.106  0.3213E-12  0.7223E-10  0.2688E-10
    -71.812  0.3726E-09  0.4638E-07  0.2574E-07
    -71.518  0.4758E-09  0.2853E-06  0.3321E-07
    -71.224  0.3327E-05  0.1438E-01  0.5591E-05
    -70.930  0.1884E-04  0.4472E+01  0.3957E-04
    -70.637  0.2610E-04  0.1582E+02  0.3682E-04
    -70.343  0.8972E-07  0.4227E-01  0.3307E-07
    -70.049  0.5666E-15  0.8178E-10  0.4741E-13
    -69.755  0.0000E+00  0.0000E+00  0.0000E+00
    -69.461  0.0000E+00  0.0000E+00  0.0000E+00
    -69.167  0.0000E+00  0.0000E+00  0.0000E+00
    -68.873  0.0000E+00  0.0000E+00  0.0000E+00
    -68.579  0.0000E+00  0.0000E+00  0.0000E+00
    -68.285  0.0000E+00  0.0000E+00  0.0000E+00
    -67.992  0.0000E+00  0.0000E+00  0.0000E+00
    -67.698  0.0000E+00  0.0000E+00  0.0000E+00
    -67.404  0.0000E+00  0.0000E+00  0.0000E+00
    -67.110  0.0000E+00  0.0000E+00  0.0000E+00
    -66.816  0.0000E+00  0.0000E+00  0.0000E+00
    -66.522  0.0000E+00  0.0000E+00  0.0000E+00
    -66.228  0.0000E+00  0.0000E+00  0.0000E+00
    -65.934  0.0000E+00  0.0000E+00  0.0000E+00
    -65.641  0.0000E+00  0.0000E+00  0.0000E+00
    -65.347  0.0000E+00  0.0000E+00  0.0000E+00
    -65.053  0.0000E+00  0.0000E+00  0.0000E+00
    -64.759  0.0000E+00  0.0000E+00  0.0000E+00
    -64.465  0.0000E+00  0.0000E+00  0.0000E+00
    -64.171  0.0000E+00  0.0000E+00  0.0000E+00
    -63.877  0.0000E+00  0.0000E+00  0.0000E+00
    -63.583  0.0000E+00  0.0000E+00  0.0000E+00
    -63.289  0.0000E+00  0.0000E+00  0.0000E+00
    -62.996  0.0000E+00  0.0000E+00  0.0000E+00
    -62.702  0.0000E+00  0.0000E+00  0.0000E+00
    -62.408  0.0000E+00  0.0000E+00  0.0000E+00
    -62.114  0.0000E+00  0.0000E+00  0.0000E+00
    -61.820  0.0000E+00  0.0000E+00  0.0000E+00
    -61.526  0.0000E+00  0.0000E+00  0.0000E+00
    -61.232  0.0000E+00  0.0000E+00  0.0000E+00
    -60.938  0.0000E+00  0.0000E+00  0.0000E+00
    -60.645  0.0000E+00  0.0000E+00  0.0000E+00
    -60.351  0.0000E+00  0.0000E+00  0.0000E+00
    -60.057  0.0000E+00  0.0000E+00  0.0000E+00
    -59.763  0.0000E+00  0.0000E+00  0.0000E+00
    -59.469  0.0000E+00  0.0000E+00  0.0000E+00
    -59.175  0.0000E+00  0.0000E+00  0.0000E+00
    -58.881  0.0000E+00  0.0000E+00  0.0000E+00
    -58.587  0.0000E+00  0.0000E+00  0.0000E+00
    -58.293  0.0000E+00  0.0000E+00  0.0000E+00
    -58.000  0.0000E+00  0.0000E+00  0.0000E+00
    -57.706  0.0000E+00  0.0000E+00  0.0000E+00
    -57.412  0.0000E+00  0.0000E+00  0.0000E+00
    -57.118  0.0000E+00  0.0000E+00  0.0000E+00
    -56.824  0.0000E+00  0.0000E+00  0.0000E+00
    -56.530  0.0000E+00  0.0000E+00  0.0000E+00
    -56.236  0.0000E+00  0.0000E+00  0.0000E+00
    -55.942  0.0000E+00  0.0000E+00  0.0000E+00
    -55.649  0.0000E+00  0.0000E+00  0.0000E+00
    -55.355  0.0000E+00  0.0000E+00  0.0000E+00
    -55.061  0.0000E+00  0.0000E+00  0.0000E+00
    -54.767  0.0000E+00  0.0000E+00  0.0000E+00
    -54.473  0.0000E+00  0.0000E+00  0.0000E+00
    -54.179  0.0000E+00  0.0000E+00  0.0000E+00
    -53.885  0.0000E+00  0.0000E+00  0.0000E+00
    -53.591  0.0000E+00  0.0000E+00  0.0000E+00
    -53.297  0.0000E+00  0.0000E+00  0.0000E+00
    -53.004  0.0000E+00  0.0000E+00  0.0000E+00
    -52.710  0.0000E+00  0.0000E+00  0.0000E+00
    -52.416  0.0000E+00  0.0000E+00  0.0000E+00
    -52.122  0.0000E+00  0.0000E+00  0.0000E+00
    -51.828  0.0000E+00  0.0000E+00  0.0000E+00
    -51.534  0.0000E+00  0.0000E+00  0.0000E+00
    -51.240  0.0000E+00  0.0000E+00  0.0000E+00
    -50.946  0.0000E+00  0.0000E+00  0.0000E+00
    -50.653  0.0000E+00  0.0000E+00  0.0000E+00
    -50.359  0.0000E+00  0.0000E+00  0.0000E+00
    -50.065  0.0000E+00  0.0000E+00  0.0000E+00
    -49.771  0.0000E+00  0.0000E+00  0.0000E+00