   17   17  150    1
  0.3364036E+02  0.5019695E-09  0.5019695E-09  0.2620742E-08  0.5000000E-15
  1.000000000000000E-004
  CAR 
 unknown system                          
    276     13    168
 
  0.0000000E+00  0.0000000E+00  0.0000000E+00  0.2777778E-01
    1      -71.918905
    2      -71.860047
    3      -71.850583
    4      -71.569070
    5      -71.560981
    6      -71.526842
    7      -71.525720
    8      -71.492518
    9      -71.485315
   10      -71.227473
   11      -71.227261
   12      -71.215535
   13      -71.189237
   14      -71.185021
   15      -71.167512
   16      -71.166574
   17      -71.152499
   18      -71.147456
   19      -71.147306
   20      -71.145936
   21      -71.133992
   22      -71.133642
   23      -71.118226
   24      -71.117925
   25      -71.112993
   26      -71.112474
   27      -71.111162
   28      -71.087185
   29      -71.086814
   30      -71.082939
   31      -71.045195
   32      -71.009714
   33      -71.009395
   34      -70.962981
   35      -70.962892
   36      -70.942192
   37      -70.884564
   38      -70.884534
   39      -70.869770
   40      -70.849667
   41      -70.849612
   42      -70.846918
   43      -70.820910
   44      -70.813599
   45      -70.813543
   46      -70.749531
   47      -70.749452
   48      -70.654605
   49      -12.483487
   50      -10.243154
   51       -8.717201
   52       -7.071688
   53       -6.466199
   54       -6.463972
   55       -6.457295
   56       -6.258014
   57       -6.072748
   58       -6.071953
   59       -6.064692
   60       -6.041962
   61       -6.038583
   62       -6.034419
   63       -5.633286
   64       -5.630911
   65       -5.617973
   66       -5.559884
   67       -5.558849
   68       -5.548309
   69       -5.275455
   70       -5.274446
   71       -5.175531
   72       -5.044688
   73       -5.032020
   74       -4.782149
   75       -4.560261
   76       -4.560006
   77       -4.491039
   78       -4.380132
   79       -4.378629
   80       -4.355844
   81       -4.279622
   82       -4.237245
   83       -4.233055
   84       -4.173182
   85       -4.172832
   86       -4.144752
   87       -4.094438
   88       -4.089812
   89       -4.061490
   90       -4.060038
   91       -4.000519
   92       -3.950603
   93       -3.950497
   94       -3.882409
   95       -3.868322
   96       -3.868285
   97       -3.806038
   98       -3.708590
   99       -3.708030
  100       -3.604468
  101       -3.439443
  102       -3.437657
  103       -3.288892
  104       -3.288699
  105       -3.224884
  106       -3.184665
  107       -3.183014
  108       -3.114569
  109       -3.113536
  110       -3.091399
  111       -3.009867
  112       -2.968753
  113       -2.968101
  114       -2.875271
  115       -2.874570
  116       -2.810054
  117       -2.801456
  118       -2.800645
  119       -2.799236
  120       -2.748941
  121       -2.747949
  122       -2.729196
  123       -2.728567
  124       -2.681361
  125       -2.681301
  126       -2.680227
  127       -2.608763
  128       -2.574526
  129       -2.574449
  130       -2.421864
  131       -2.421823
  132       -2.408308
  133       -2.166700
  134       -1.893448
  135       -1.643870
  136       -1.633502
  137       -1.001532
  138       -0.996039
  139       -0.954546
  140       -0.113037
  141       -0.111371
  142       -0.076562
  143        0.023157
  144        0.407887
  145        0.417699
  146        0.418194
  147        0.645527
  148        0.665521
  149        3.320453
  150        3.377630
  151        3.426882
  152        3.601159
  153        3.608166
  154        4.260521
  155        4.422735
  156        4.739274
  157        4.766420
  158        4.773732
  159        5.072354
  160        5.785121
  161        5.992538
  162        6.342786
  163        6.356174
  164        6.425847
  165        7.048509
  166        7.076309
  167        7.874264
  168        8.059874
 
  0.1666667E+00 -0.4163336E-16  0.0000000E+00  0.5555556E-01
    1      -71.914912
    2      -71.863411
    3      -71.850299
    4      -71.567076
    5      -71.560117
    6      -71.527349
    7      -71.525067
    8      -71.494910
    9      -71.485589
   10      -71.223884
   11      -71.221558
   12      -71.210625
   13      -71.186398
   14      -71.182780
   15      -71.166864
   16      -71.165181
   17      -71.152644
   18      -71.151384
   19      -71.150097
   20      -71.145352
   21      -71.132637
   22      -71.131356
   23      -71.125311
   24      -71.119138
   25      -71.112213
   26      -71.111800
   27      -71.110925
   28      -71.090661
   29      -71.088821
   30      -71.083988
   31      -71.045024
   32      -71.013285
   33      -71.010115
   34      -70.960039
   35      -70.957696
   36      -70.937623
   37      -70.888451
   38      -70.884239
   39      -70.871370
   40      -70.855537
   41      -70.850720
   42      -70.846687
   43      -70.820409
   44      -70.814112
   45      -70.813740
   46      -70.750022
   47      -70.749482
   48      -70.654605
   49      -12.418547
   50      -10.026890
   51       -8.542857
   52       -6.949096
   53       -6.564814
   54       -6.383432
   55       -6.334905
   56       -6.301482
   57       -6.175497
   58       -6.034266
   59       -6.028016
   60       -5.973164
   61       -5.938241
   62       -5.912408
   63       -5.584724
   64       -5.556094
   65       -5.553988
   66       -5.516855
   67       -5.488026
   68       -5.484213
   69       -5.249724
   70       -5.222606
   71       -5.132547
   72       -5.013631
   73       -4.991137
   74       -4.765359
   75       -4.608945
   76       -4.583616
   77       -4.536553
   78       -4.396171
   79       -4.358474
   80       -4.356030
   81       -4.304210
   82       -4.257070
   83       -4.255802
   84       -4.231502
   85       -4.189755
   86       -4.141428
   87       -4.139240
   88       -4.118620
   89       -4.079443
   90       -4.070945
   91       -4.049150
   92       -4.023733
   93       -3.997427
   94       -3.960584
   95       -3.886007
   96       -3.847810
   97       -3.799863
   98       -3.789332
   99       -3.745590
  100       -3.691451
  101       -3.522004
  102       -3.516985
  103       -3.427986
  104       -3.400326
  105       -3.317015
  106       -3.316079
  107       -3.273336
  108       -3.216696
  109       -3.162868
  110       -3.122087
  111       -3.108666
  112       -3.101947
  113       -3.051424
  114       -3.002431
  115       -2.945762
  116       -2.945656
  117       -2.888678
  118       -2.862703
  119       -2.855541
  120       -2.833333
  121       -2.830295
  122       -2.784071
  123       -2.765875
  124       -2.752914
  125       -2.735222
  126       -2.731467
  127       -2.718010
  128       -2.687035
  129       -2.664835
  130       -2.576151
  131       -2.571864
  132       -2.519720
  133       -2.513708
  134       -2.011907
  135       -1.710089
  136       -1.639683
  137       -1.453371
  138       -1.110748
  139       -1.053967
  140       -0.891012
  141       -0.207416
  142       -0.143067
  143        0.190352
  144        0.700372
  145        0.928036
  146        1.205779
  147        1.481862
  148        1.764830
  149        3.535315
  150        3.624378
  151        3.739073
  152        3.813665
  153        4.052420
  154        4.496882
  155        4.686232
  156        4.903701
  157        5.016011
  158        5.096941
  159        5.271096
  160        6.026900
  161        6.243656
  162        6.559453
  163        6.613521
  164        6.700448
  165        7.145185
  166        7.178395
  167        7.986560
  168        8.137036
 
  0.3333333E+00  0.0000000E+00  0.0000000E+00  0.5555556E-01
    1      -71.905061
    2      -71.872793
    3      -71.849918
    4      -71.563126
    5      -71.558969
    6      -71.531391
    7      -71.520773
    8      -71.501198
    9      -71.486125
   10      -71.215881
   11      -71.208193
   12      -71.196751
   13      -71.181976
   14      -71.177061
   15      -71.167357
   16      -71.162993
   17      -71.162704
   18      -71.158799
   19      -71.149288
   20      -71.143944
   21      -71.141661
   22      -71.128442
   23      -71.124720
   24      -71.122786
   25      -71.111432
   26      -71.111395
   27      -71.110723
   28      -71.100875
   29      -71.097989
   30      -71.083553
   31      -71.044692
   32      -71.021791
   33      -71.012299
   34      -70.954120
   35      -70.944381
   36      -70.926867
   37      -70.897366
   38      -70.886086
   39      -70.872716
   40      -70.872599
   41      -70.854467
   42      -70.846417
   43      -70.819643
   44      -70.815259
   45      -70.813600
   46      -70.751493
   47      -70.750074
   48      -70.654598
   49      -12.283786
   50       -9.395071
   51       -8.063157
   52       -7.283194
   53       -6.760660
   54       -6.440588
   55       -6.169285
   56       -6.114202
   57       -5.980658
   58       -5.928227
   59       -5.877279
   60       -5.831785
   61       -5.722563
   62       -5.672791
   63       -5.517492
   64       -5.446418
   65       -5.395016
   66       -5.364718
   67       -5.340721
   68       -5.308336
   69       -5.124391
   70       -5.110854
   71       -5.007922
   72       -4.931990
   73       -4.910629
   74       -4.815964
   75       -4.704006
   76       -4.703915
   77       -4.640613
   78       -4.568522
   79       -4.548989
   80       -4.458033
   81       -4.453883
   82       -4.394713
   83       -4.371251
   84       -4.348530
   85       -4.266921
   86       -4.232708
   87       -4.215724
   88       -4.188519
   89       -4.123645
   90       -4.123312
   91       -4.082955
   92       -4.030860
   93       -4.030791
   94       -3.984359
   95       -3.961836
   96       -3.908321
   97       -3.883450
   98       -3.850448
   99       -3.836262
  100       -3.793700
  101       -3.733206
  102       -3.687613
  103       -3.598421
  104       -3.597482
  105       -3.565488
  106       -3.511940
  107       -3.477698
  108       -3.472212
  109       -3.426366
  110       -3.364911
  111       -3.330060
  112       -3.303432
  113       -3.287267
  114       -3.242572
  115       -3.199354
  116       -3.128858
  117       -3.113384
  118       -3.085933
  119       -3.074041
  120       -3.019215
  121       -3.014744
  122       -2.971338
  123       -2.948632
  124       -2.948051
  125       -2.913261
  126       -2.831956
  127       -2.814771
  128       -2.755427
  129       -2.720917
  130       -2.717706
  131       -2.687781
  132       -2.618114
  133       -2.601991
  134       -2.403679
  135       -1.951727
  136       -1.671486
  137       -1.366300
  138       -1.049654
  139       -0.958210
  140       -0.791400
  141       -0.196548
  142       -0.082217
  143        0.310949
  144        0.952443
  145        1.522906
  146        1.851883
  147        2.346806
  148        3.007892
  149        3.581245
  150        4.152403
  151        4.281559
  152        4.523985
  153        4.870910
  154        5.213174
  155        5.425156
  156        5.664514
  157        5.684819
  158        5.859652
  159        6.244890
  160        6.687590
  161        6.853759
  162        7.087276
  163        7.173324
  164        7.177608
  165        7.519691
  166        7.601681
  167        7.912508
  168        8.022912
 
  0.5000000E+00 -0.5551115E-16  0.0000000E+00  0.2777778E-01
    1      -71.896299
    2      -71.880994
    3      -71.849523
    4      -71.560462
    5      -71.558235
    6      -71.533638
    7      -71.516779
    8      -71.505930
    9      -71.486243
   10      -71.210657
   11      -71.198661
   12      -71.182403
   13      -71.179460
   14      -71.173827
   15      -71.171269
   16      -71.167482
   17      -71.164597
   18      -71.161805
   19      -71.160881
   20      -71.145056
   21      -71.138584
   22      -71.126335
   23      -71.125083
   24      -71.114957
   25      -71.111828
   26      -71.110555
   27      -71.109977
   28      -71.108674
   29      -71.107307
   30      -71.082733
   31      -71.044453
   32      -71.026133
   33      -71.013127
   34      -70.950587
   35      -70.932040
   36      -70.924433
   37      -70.894607
   38      -70.890339
   39      -70.888178
   40      -70.871577
   41      -70.856551
   42      -70.846192
   43      -70.818943
   44      -70.815946
   45      -70.813500
   46      -70.752008
   47      -70.750152
   48      -70.654516
   49      -12.213787
   50       -8.480947
   51       -8.356880
   52       -7.505060
   53       -7.116413
   54       -6.327778
   55       -5.982364
   56       -5.977795
   57       -5.912850
   58       -5.804373
   59       -5.755839
   60       -5.597206
   61       -5.593661
   62       -5.530509
   63       -5.503991
   64       -5.411601
   65       -5.363437
   66       -5.250159
   67       -5.157671
   68       -5.099353
   69       -5.098171
   70       -5.075209
   71       -5.022212
   72       -4.920848
   73       -4.907909
   74       -4.850915
   75       -4.781251
   76       -4.780742
   77       -4.754789
   78       -4.684582
   79       -4.626329
   80       -4.561161
   81       -4.502765
   82       -4.497965
   83       -4.479981
   84       -4.474451
   85       -4.429794
   86       -4.389901
   87       -4.304063
   88       -4.236970
   89       -4.179246
   90       -4.146400
   91       -4.109721
   92       -4.066130
   93       -4.042485
   94       -3.996102
   95       -3.983598
   96       -3.945195
   97       -3.901372
   98       -3.893020
   99       -3.887538
  100       -3.854133
  101       -3.829455
  102       -3.795615
  103       -3.761971
  104       -3.689398
  105       -3.648743
  106       -3.561999
  107       -3.548207
  108       -3.507969
  109       -3.504165
  110       -3.499252
  111       -3.463683
  112       -3.403440
  113       -3.349509
  114       -3.332144
  115       -3.266423
  116       -3.260514
  117       -3.238825
  118       -3.238146
  119       -3.212500
  120       -3.136287
  121       -3.133480
  122       -3.086019
  123       -3.016436
  124       -2.985140
  125       -2.934392
  126       -2.919909
  127       -2.839744
  128       -2.751139
  129       -2.729016
  130       -2.718372
  131       -2.706947
  132       -2.616173
  133       -2.601167
  134       -2.451128
  135       -1.863986
  136       -1.681600
  137       -1.391846
  138       -1.025418
  139       -1.018699
  140       -0.762189
  141       -0.022226
  142        0.019874
  143        0.501563
  144        0.887298
  145        1.708101
  146        2.008157
  147        2.675658
  148        3.004988
  149        3.890434
  150        4.976761
  151        5.129598
  152        5.281721
  153        5.689046
  154        5.694702
  155        5.973338
  156        6.145439
  157        6.158480
  158        6.212783
  159        6.410246
  160        6.502737
  161        6.689379
  162        6.745189
  163        6.876709
  164        6.985237
  165        7.345928
  166        7.573645
  167        7.769118
  168        7.939823
 
  0.0000000E+00  0.1666667E+00  0.0000000E+00  0.1111111E+00
    1      -71.915421
    2      -71.860579
    3      -71.852620
    4      -71.568001
    5      -71.558944
    6      -71.527671
    7      -71.525167
    8      -71.493270
    9      -71.487062
   10      -71.223716
   11      -71.221750
   12      -71.210615
   13      -71.186373
   14      -71.182725
   15      -71.166556
   16      -71.165610
   17      -71.152501
   18      -71.151352
   19      -71.150364
   20      -71.145206
   21      -71.132451
   22      -71.131575
   23      -71.125054
   24      -71.119379
   25      -71.112425
   26      -71.111979
   27      -71.110589
   28      -71.090893
   29      -71.088837
   30      -71.083639
   31      -71.045024
   32      -71.013054
   33      -71.010374
   34      -70.960117
   35      -70.957628
   36      -70.937620
   37      -70.888424
   38      -70.884217
   39      -70.871418
   40      -70.855491
   41      -70.850759
   42      -70.846687
   43      -70.820404
   44      -70.814161
   45      -70.813697
   46      -70.749952
   47      -70.749544
   48      -70.654605
   49      -12.418667
   50      -10.026851
   51       -8.542786
   52       -6.950112
   53       -6.563645
   54       -6.379978
   55       -6.335969
   56       -6.301722
   57       -6.176605
   58       -6.035205
   59       -6.027319
   60       -5.973805
   61       -5.935265
   62       -5.914584
   63       -5.584274
   64       -5.555944
   65       -5.554322
   66       -5.517229
   67       -5.486917
   68       -5.485045
   69       -5.247372
   70       -5.225162
   71       -5.132141
   72       -5.021807
   73       -4.985198
   74       -4.765727
   75       -4.610225
   76       -4.582444
   77       -4.536734
   78       -4.393570
   79       -4.358789
   80       -4.357438
   81       -4.303334
   82       -4.258558
   83       -4.256090
   84       -4.230873
   85       -4.187721
   86       -4.142463
   87       -4.139977
   88       -4.118238
   89       -4.080922
   90       -4.068851
   91       -4.048866
   92       -4.024077
   93       -3.995839
   94       -3.960109
   95       -3.885958
   96       -3.851546
   97       -3.803262
   98       -3.789223
   99       -3.745508
  100       -3.689620
  101       -3.517883
  102       -3.515729
  103       -3.428425
  104       -3.400564
  105       -3.317321
  106       -3.316723
  107       -3.274101
  108       -3.217657
  109       -3.163200
  110       -3.121438
  111       -3.108271
  112       -3.101805
  113       -3.051753
  114       -3.002272
  115       -2.946457
  116       -2.945514
  117       -2.888482
  118       -2.863235
  119       -2.856236
  120       -2.833194
  121       -2.830241
  122       -2.784617
  123       -2.765672
  124       -2.753165
  125       -2.733917
  126       -2.731489
  127       -2.718105
  128       -2.686611
  129       -2.664762
  130       -2.576233
  131       -2.571515
  132       -2.519532
  133       -2.513716
  134       -2.015193
  135       -1.711867
  136       -1.636998
  137       -1.453874
  138       -1.108518
  139       -1.053428
  140       -0.893529
  141       -0.209032
  142       -0.140825
  143        0.194771
  144        0.703813
  145        0.924184
  146        1.207261
  147        1.478416
  148        1.767692
  149        3.535117
  150        3.621927
  151        3.739735
  152        3.808728
  153        4.058080
  154        4.497268
  155        4.685507
  156        4.902471
  157        5.009341
  158        5.101650
  159        5.273751
  160        6.024188
  161        6.242245
  162        6.553365
  163        6.620179
  164        6.699424
  165        7.132727
  166        7.196701
  167        7.983239
  168        8.137488
 
  0.3333333E+00  0.1666667E+00  0.0000000E+00  0.1111111E+00
    1      -71.908771
    2      -71.867714
    3      -71.851495
    4      -71.565617
    5      -71.557456
    6      -71.530790
    7      -71.522313
    8      -71.497772
    9      -71.487270
   10      -71.218000
   11      -71.211520
   12      -71.201908
   13      -71.183052
   14      -71.178594
   15      -71.166313
   16      -71.164661
   17      -71.162834
   18      -71.150819
   19      -71.148683
   20      -71.146673
   21      -71.137562
   22      -71.130098
   23      -71.126300
   24      -71.122740
   25      -71.112119
   26      -71.111232
   27      -71.110436
   28      -71.099929
   29      -71.090013
   30      -71.086521
   31      -71.044796
   32      -71.018725
   33      -71.012423
   34      -70.955286
   35      -70.948851
   36      -70.929701
   37      -70.896764
   38      -70.882329
   39      -70.874893
   40      -70.865880
   41      -70.854032
   42      -70.846499
   43      -70.819833
   44      -70.814985
   45      -70.813712
   46      -70.751019
   47      -70.749987
   48      -70.654624
   49      -12.318592
   50       -9.601925
   51       -8.210808
   52       -6.854665
   53       -6.665067
   54       -6.591858
   55       -6.361231
   56       -6.250179
   57       -6.069118
   58       -6.016686
   59       -5.878359
   60       -5.865013
   61       -5.758398
   62       -5.683310
   63       -5.525774
   64       -5.468331
   65       -5.428156
   66       -5.408968
   67       -5.376841
   68       -5.375938
   69       -5.177542
   70       -5.107401
   71       -5.049786
   72       -4.958033
   73       -4.934149
   74       -4.783415
   75       -4.675705
   76       -4.646285
   77       -4.620797
   78       -4.548132
   79       -4.493975
   80       -4.410438
   81       -4.384135
   82       -4.362697
   83       -4.314671
   84       -4.281647
   85       -4.257231
   86       -4.211693
   87       -4.194826
   88       -4.173327
   89       -4.149511
   90       -4.113548
   91       -4.063043
   92       -4.023000
   93       -3.982798
   94       -3.956647
   95       -3.941748
   96       -3.927650
   97       -3.895309
   98       -3.858695
   99       -3.813274
  100       -3.743098
  101       -3.707009
  102       -3.645353
  103       -3.612202
  104       -3.502495
  105       -3.464341
  106       -3.436553
  107       -3.415836
  108       -3.392458
  109       -3.378752
  110       -3.324415
  111       -3.298602
  112       -3.256744
  113       -3.227637
  114       -3.202844
  115       -3.155986
  116       -3.074043
  117       -3.048197
  118       -3.042613
  119       -2.996434
  120       -2.959616
  121       -2.940077
  122       -2.922459
  123       -2.859871
  124       -2.837213
  125       -2.804434
  126       -2.788152
  127       -2.773206
  128       -2.770974
  129       -2.691673
  130       -2.676083
  131       -2.653795
  132       -2.549079
  133       -2.460150
  134       -2.339213
  135       -2.186814
  136       -2.148107
  137       -1.529548
  138       -1.248624
  139       -0.865058
  140       -0.650843
  141        0.075065
  142        0.260437
  143        0.701341
  144        0.915347
  145        1.073442
  146        1.599600
  147        1.986617
  148        2.345856
  149        3.810837
  150        3.951171
  151        4.100341
  152        4.482771
  153        4.787166
  154        4.976740
  155        5.096496
  156        5.329902
  157        5.517060
  158        5.583805
  159        5.919391
  160        6.460581
  161        6.652861
  162        6.920162
  163        7.108971
  164        7.273011
  165        7.459403
  166        7.594199
  167        8.221722
  168        8.230652
 
  0.5000000E+00  0.1666667E+00  0.0000000E+00  0.1111111E+00
    1      -71.898162
    2      -71.877965
    3      -71.850723
    4      -71.562769
    5      -71.555217
    6      -71.534463
    7      -71.517597
    8      -71.503677
    9      -71.487627
   10      -71.208688
   11      -71.197193
   12      -71.187511
   13      -71.179946
   14      -71.176390
   15      -71.173074
   16      -71.167393
   17      -71.162460
   18      -71.161146
   19      -71.151773
   20      -71.144846
   21      -71.141726
   22      -71.130205
   23      -71.126848
   24      -71.115783
   25      -71.112130
   26      -71.110550
   27      -71.110411
   28      -71.108078
   29      -71.099032
   30      -71.087637
   31      -71.044546
   32      -71.023731
   33      -71.015030
   34      -70.948370
   35      -70.936791
   36      -70.919794
   37      -70.903324
   38      -70.889198
   39      -70.879548
   40      -70.872457
   41      -70.858699
   42      -70.846253
   43      -70.818794
   44      -70.816191
   45      -70.813687
   46      -70.751731
   47      -70.750402
   48      -70.654600
   49      -12.215434
   50       -8.791637
   51       -7.771947
   52       -7.545002
   53       -6.885247
   54       -6.731138
   55       -6.318116
   56       -6.148599
   57       -5.910322
   58       -5.777225
   59       -5.679312
   60       -5.613798
   61       -5.537467
   62       -5.467074
   63       -5.406173
   64       -5.351758
   65       -5.320788
   66       -5.240157
   67       -5.203048
   68       -5.161640
   69       -5.069289
   70       -5.022572
   71       -4.979536
   72       -4.919008
   73       -4.903159
   74       -4.854994
   75       -4.815712
   76       -4.770251
   77       -4.730774
   78       -4.709236
   79       -4.665063
   80       -4.610871
   81       -4.537999
   82       -4.528733
   83       -4.490792
   84       -4.448185
   85       -4.409659
   86       -4.370388
   87       -4.311764
   88       -4.251732
   89       -4.234561
   90       -4.184589
   91       -4.135480
   92       -4.078661
   93       -4.053350
   94       -4.033626
   95       -4.005587
   96       -3.964995
   97       -3.957743
   98       -3.878850
   99       -3.853798
  100       -3.819881
  101       -3.802811
  102       -3.762864
  103       -3.724079
  104       -3.669885
  105       -3.654415
  106       -3.571064
  107       -3.529834
  108       -3.519946
  109       -3.497420
  110       -3.459670
  111       -3.420730
  112       -3.375685
  113       -3.317518
  114       -3.279024
  115       -3.259631
  116       -3.214255
  117       -3.200481
  118       -3.171724
  119       -3.115163
  120       -3.091139
  121       -3.046291
  122       -3.028616
  123       -2.941277
  124       -2.918340
  125       -2.886009
  126       -2.844435
  127       -2.803939
  128       -2.792335
  129       -2.773536
  130       -2.749618
  131       -2.720448
  132       -2.694703
  133       -2.674405
  134       -2.400689
  135       -2.274266
  136       -2.084268
  137       -1.809087
  138       -1.322936
  139       -0.884700
  140       -0.317632
  141        0.178705
  142        0.563940
  143        0.844133
  144        1.166081
  145        1.871635
  146        2.143516
  147        2.588054
  148        2.993458
  149        3.399243
  150        4.254907
  151        4.697661
  152        4.731566
  153        5.212462
  154        5.396689
  155        5.774272
  156        5.927783
  157        6.055992
  158        6.257977
  159        6.437558
  160        6.684803
  161        6.914290
  162        7.136975
  163        7.331661
  164        7.383422
  165        7.552082
  166        7.601475
  167        7.780120
  168        7.874990
 
  0.0000000E+00  0.3333333E+00  0.0000000E+00  0.1111111E+00
    1      -71.907657
    2      -71.864576
    3      -71.855535
    4      -71.566665
    5      -71.554026
    6      -71.533039
    7      -71.521634
    8      -71.496055
    9      -71.490188
   10      -71.215655
   11      -71.208529
   12      -71.196730
   13      -71.181913
   14      -71.176830
   15      -71.167105
   16      -71.163357
   17      -71.162788
   18      -71.159139
   19      -71.149048
   20      -71.143578
   21      -71.141440
   22      -71.128610
   23      -71.125082
   24      -71.123051
   25      -71.112418
   26      -71.111293
   27      -71.109969
   28      -71.100819
   29      -71.098044
   30      -71.083034
   31      -71.044693
   32      -71.021583
   33      -71.012600
   34      -70.954213
   35      -70.944327
   36      -70.926858
   37      -70.897320
   38      -70.885945
   39      -70.872895
   40      -70.872562
   41      -70.854479
   42      -70.846418
   43      -70.819618
   44      -70.815329
   45      -70.813557
   46      -70.751411
   47      -70.750134
   48      -70.654598
   49      -12.284202
   50       -9.394845
   51       -8.062481
   52       -7.282593
   53       -6.760242
   54       -6.439732
   55       -6.168925
   56       -6.114932
   57       -5.981602
   58       -5.927563
   59       -5.876619
   60       -5.833320
   61       -5.719484
   62       -5.676083
   63       -5.517222
   64       -5.445028
   65       -5.396974
   66       -5.365807
   67       -5.340584
   68       -5.309022
   69       -5.121541
   70       -5.113328
   71       -5.008120
   72       -4.933377
   73       -4.909056
   74       -4.817235
   75       -4.704317
   76       -4.701741
   77       -4.640204
   78       -4.564231
   79       -4.549656
   80       -4.459570
   81       -4.455818
   82       -4.396118
   83       -4.370441
   84       -4.344062
   85       -4.268954
   86       -4.233138
   87       -4.215688
   88       -4.187672
   89       -4.127482
   90       -4.121770
   91       -4.081593
   92       -4.036384
   93       -4.031846
   94       -3.984770
   95       -3.960412
   96       -3.906311
   97       -3.884066
   98       -3.851180
   99       -3.835780
  100       -3.796897
  101       -3.733636
  102       -3.689802
  103       -3.598210
  104       -3.596954
  105       -3.564799
  106       -3.512152
  107       -3.476991
  108       -3.471660
  109       -3.425926
  110       -3.365191
  111       -3.330220
  112       -3.304106
  113       -3.287994
  114       -3.240795
  115       -3.198085
  116       -3.127692
  117       -3.113192
  118       -3.086260
  119       -3.073052
  120       -3.019288
  121       -3.015077
  122       -2.971481
  123       -2.948616
  124       -2.947171
  125       -2.913176
  126       -2.832145
  127       -2.814824
  128       -2.755684
  129       -2.721256
  130       -2.716977
  131       -2.687890
  132       -2.618267
  133       -2.601367
  134       -2.401742
  135       -1.947379
  136       -1.676695
  137       -1.367402
  138       -1.050756
  139       -0.957521
  140       -0.791024
  141       -0.193126
  142       -0.083771
  143        0.314542
  144        0.950091
  145        1.524041
  146        1.855122
  147        2.348613
  148        3.006464
  149        3.582131
  150        4.152382
  151        4.280304
  152        4.519536
  153        4.871382
  154        5.213979
  155        5.424667