 vasp.5.3.5 31Mar14 (build Oct 26 2016 13:29:44) complex                        
  
 executed on  GRP7IFC17NORMALVTST date 2017.07.12  16:51:46
 running on   32 total cores
 distrk:  each k-point on   32 cores,    1 groups
 distr:  one band on NCORES_PER_BAND=   8 cores,    4 groups


--------------------------------------------------------------------------------------------------------


 INCAR:
 POTCAR:    PAW_PBE Cu_pv 06Sep2000               
 POTCAR:    PAW_PBE C 08Apr2002                   
 POTCAR:    PAW_PBE Cu_pv 06Sep2000               
   VRHFIN =Cu: d10 p1                                                           
   LEXCH  = PE                                                                  
   EATOM  =  4120.1201 eV,  302.8203 Ry                                         
                                                                                
   TITEL  = PAW_PBE Cu_pv 06Sep2000                                             
   LULTRA =        F    use ultrasoft PP ?                                      
   IUNSCR =        1    unscreen: 0-lin 1-nonlin 2-no                           
   RPACOR =    1.500    partial core radius                                     
   POMASS =   63.546; ZVAL   =   17.000    mass and valenz                      
   RCORE  =    2.000    outmost cutoff radius                                   
   RWIGS  =    2.000; RWIGS  =    1.058    wigner-seitz radius (au A)           
   ENMAX  =  368.648; ENMIN  =  276.486 eV                                      
   RCLOC  =    1.304    cutoff for local pot                                    
   LCOR   =        T    correct aug charges                                     
   LPAW   =        T    paw PP                                                  
   EAUG   =  758.233                                                            
   DEXC   =    0.000                                                            
   RMAX   =    2.046    core radius for proj-oper                               
   RAUG   =    1.300    factor for augmentation sphere                          
   RDEP   =    2.025    radius for radial grids                                 
   RDEPT  =    1.558    core radius for aug-charge                              
                                                                                
   Atomic configuration                                                         
    8 entries                                                                   
     n  l   j            E        occ.                                          
     1  0  0.50     -8850.2467   2.0000                                         
     2  0  0.50     -1062.3498   2.0000                                         
     2  1  1.50      -916.8226   6.0000                                         
     3  0  0.50      -114.6929   2.0000                                         
     3  1  1.50       -72.1325   6.0000                                         
     3  2  2.50        -5.0394  10.0000                                         
     4  0  0.50        -4.6097   1.0000                                         
     4  3  2.50        -1.3606   0.0000                                         
   Description                                                                  
     l       E           TYP  RCUT    TYP  RCUT                                 
     1    -72.1324777     23  1.700                                             
     1     -1.3605826     23  1.700                                             
     2     -5.0393776     23  2.000                                             
     2     -6.3999602     23  2.000                                             
     0     -4.6097062     23  1.800                                             
     0     14.1620818     23  1.800                                             
  local pseudopotential read in
  partial core-charges read in
  partial kinetic energy density read in
  atomic valenz-charges read in
  non local Contribution for L=           1  read in
    real space projection operators read in
  non local Contribution for L=           1  read in
    real space projection operators read in
  non local Contribution for L=           2  read in
    real space projection operators read in
  non local Contribution for L=           2  read in
    real space projection operators read in
  non local Contribution for L=           0  read in
    real space projection operators read in
  non local Contribution for L=           0  read in
    real space projection operators read in
    PAW grid and wavefunctions read in
 
   number of l-projection  operators is LMAX  =           6
   number of lm-projection operators is LMMAX =          18
 
 POTCAR:    PAW_PBE C 08Apr2002                   
   VRHFIN =C: s2p2                                                              
   LEXCH  = PE                                                                  
   EATOM  =   147.1560 eV,   10.8157 Ry                                         
                                                                                
   TITEL  = PAW_PBE C 08Apr2002                                                 
   LULTRA =        F    use ultrasoft PP ?                                      
   IUNSCR =        1    unscreen: 0-lin 1-nonlin 2-no                           
   RPACOR =    1.200    partial core radius                                     
   POMASS =   12.011; ZVAL   =    4.000    mass and valenz                      
   RCORE  =    1.500    outmost cutoff radius                                   
   RWIGS  =    1.630; RWIGS  =    0.863    wigner-seitz radius (au A)           
   ENMAX  =  400.000; ENMIN  =  300.000 eV                                      
   ICORE  =        2    local potential                                         
   LCOR   =        T    correct aug charges                                     
   LPAW   =        T    paw PP                                                  
   EAUG   =  644.873                                                            
   DEXC   =    0.000                                                            
   RMAX   =    1.529    core radius for proj-oper                               
   RAUG   =    1.300    factor for augmentation sphere                          
   RDEP   =    1.501    radius for radial grids                                 
   RDEPT  =    1.300    core radius for aug-charge                              
                                                                                
   Atomic configuration                                                         
    4 entries                                                                   
     n  l   j            E        occ.                                          
     1  0  0.50      -273.3789   2.0000                                         
     2  0  0.50       -13.7508   2.0000                                         
     2  1  0.50        -5.2854   2.0000                                         
     3  2  1.50        -5.4423   0.0000                                         
   Description                                                                  
     l       E           TYP  RCUT    TYP  RCUT                                 
     0    -13.7508458     23  1.200                                             
     0     -8.2022199     23  1.200                                             
     1     -5.2854383     23  1.500                                             
     1     34.0145650     23  1.500                                             
     2     -5.4423304      7  1.500                                             
  local pseudopotential read in
  partial core-charges read in
  partial kinetic energy density read in
  atomic valenz-charges read in
  non local Contribution for L=           0  read in
    real space projection operators read in
  non local Contribution for L=           0  read in
    real space projection operators read in
  non local Contribution for L=           1  read in
    real space projection operators read in
  non local Contribution for L=           1  read in
    real space projection operators read in
    PAW grid and wavefunctions read in
 
   number of l-projection  operators is LMAX  =           4
   number of lm-projection operators is LMMAX =           8
 

 ----------------------------------------------------------------------------- 
|                                                                             |
|  ADVICE TO THIS USER RUNNING 'VASP/VAMP'   (HEAR YOUR MASTER'S VOICE ...):  |
|                                                                             |
|      You have a (more or less) 'large supercell' and for larger cells       |
|      it might be more efficient to use real space projection opertators     |
|      So try LREAL= Auto  in the INCAR   file.                               |
|      Mind: At the moment your POTCAR file does not contain real space       |
|       projectors, and has to be modified,  BUT if you                       |
|      want to do an extremely  accurate calculation you might also keep the  |
|      reciprocal projection scheme          (i.e. LREAL=.FALSE.)             |
|                                                                             |
 ----------------------------------------------------------------------------- 

  PAW_PBE Cu_pv 06Sep2000               :
 energy of atom  1       EATOM=-4120.1201
 kinetic energy error for atom=    0.0996 (will be added to EATOM!!)
  PAW_PBE C 08Apr2002                   :
 energy of atom  2       EATOM= -147.1560
 kinetic energy error for atom=    0.0288 (will be added to EATOM!!)
 
 
 POSCAR: test                                    
  positions in direct lattice
  No initial velocities read in
 exchange correlation table for  LEXCH =        8
   RHO(1)=    0.500       N(1)  =     2000
   RHO(2)=  100.500       N(2)  =     4000

 VTST: version 3.1, (03/28/14)

 CHAIN: initializing optimizer
 
 OPT: Using VASP Conjugate-Gradient optimizer
 CHAIN: Read ICHAIN            0
 
 POSCAR: test                                    
  positions in direct lattice
  No initial velocities read in
 


--------------------------------------------------------------------------------------------------------


 ion  position               nearest neighbor table
   1  0.000  0.000  0.000-   7 2.51   6 2.51   5 2.51   3 2.51   3 2.51   4 2.51   4 2.51   2 2.51
                             2 2.51
   2  0.000  0.500  0.000-   8 2.51   5 2.51   6 2.51   4 2.51   4 2.51   3 2.51   3 2.51   1 2.51
                             1 2.51
   3  0.500  0.000  0.000-   8 2.51   5 2.51   7 2.51   1 2.51   1 2.51   2 2.51   2 2.51   4 2.51
                             4 2.51
   4  0.500  0.500  0.000-   6 2.51   7 2.51   2 2.51   2 2.51   1 2.51   1 2.51   3 2.51   3 2.51
                             8 2.51
   5  0.167  0.167  0.078-   3 2.51   2 2.51   7 2.51   6 2.51   1 2.51   8 2.51   8 2.51   7 2.51
                             6 2.51  10 2.52   9 2.52  11 2.53
   6  0.167  0.667  0.078-   1 2.51   4 2.51   8 2.51   7 2.51   5 2.51   2 2.51   8 2.51   7 2.51
                             5 2.51   9 2.52  10 2.52  12 2.53
   7  0.667  0.167  0.078-   1 2.51   4 2.51   5 2.51   6 2.51   8 2.51   3 2.51   5 2.51   6 2.51
                             8 2.51  12 2.52  11 2.52   9 2.52
   8  0.667  0.667  0.078-   2 2.51   3 2.51   6 2.51   7 2.51   5 2.51   5 2.51   4 2.51   6 2.51
                             7 2.51  11 2.52  12 2.52  10 2.52
   9  0.334  0.333  0.157-  12 2.50  11 2.50  10 2.51  10 2.51  11 2.52  12 2.52   7 2.52   5 2.52
                             6 2.52
  10  0.334  0.833  0.157-  12 2.50  11 2.50   9 2.51   9 2.51  12 2.52  11 2.52   8 2.52   5 2.52
                             6 2.52
  11  0.832  0.334  0.157-   9 2.50  10 2.50  12 2.51  12 2.51   9 2.52  10 2.52   8 2.52   7 2.52
                             5 2.53
  12  0.832  0.834  0.157-   9 2.50  10 2.50  11 2.51  11 2.51  10 2.52   9 2.52   7 2.52   8 2.52
                             6 2.53
  13  0.993  0.003  0.238-  15 2.44  16 2.44  14 2.51  14 2.51
  14  0.993  0.503  0.238-  17 1.87  16 2.44  15 2.44  13 2.51  13 2.51
  15  0.511  0.995  0.239-  17 1.93  13 2.44  14 2.44  16 2.51  16 2.51
  16  0.511  0.495  0.239-  17 1.93  14 2.44  13 2.44  15 2.51  15 2.51
  17  0.317  0.342  0.285-  14 1.87  16 1.93  15 1.93
 
  LATTYP: Found a hexagonal cell.
 ALAT       =     5.0196948051
 C/A-ratio  =     5.2209194531
  
  Lattice vectors:
  
 A1 = (   2.5098474025,  -4.3471832205,   0.0000000000)
 A2 = (  -5.0196948051,   0.0000000000,   0.0000000000)
 A3 = (   0.0000000000,   0.0000000000, -26.2074222565)


Analysis of symmetry for initial positions (statically):
=====================================================================
 Subroutine PRICEL returns:
 Original cell was already a primitive cell.
 

 Routine SETGRP: Setting up the symmetry group for a 
 hexagonal supercell.


 Subroutine GETGRP returns: Found  2 space group operations
 (whereof  2 operations were pure point group operations)
 out of a pool of 24 trial point group operations.


The static configuration has the point symmetry C_1h.


Analysis of symmetry for dynamics (positions and initial velocities):
=====================================================================
 Subroutine PRICEL returns:
 Original cell was already a primitive cell.
 

 Routine SETGRP: Setting up the symmetry group for a 
 hexagonal supercell.


 Subroutine GETGRP returns: Found  2 space group operations
 (whereof  2 operations were pure point group operations)
 out of a pool of 24 trial point group operations.


The dynamic configuration has the point symmetry C_1h.


Analysis of constrained symmetry for selective dynamics:
=====================================================================
 Subroutine PRICEL returns:
 Original cell was already a primitive cell.
 

 Routine SETGRP: Setting up the symmetry group for a 
 hexagonal supercell.


 Subroutine GETGRP returns: Found  2 space group operations
 (whereof  2 operations were pure point group operations)
 out of a pool of 24 trial point group operations.


The constrained configuration has the point symmetry C_1h.
 
 
 KPOINTS: A                                       

Automatic generation of k-mesh.
Space group operators:
 irot       det(A)        alpha          n_x          n_y          n_z        tau_x        tau_y        tau_z
    1     1.000000     0.000001     1.000000     0.000000     0.000000     0.000000     0.000000     0.000000
    2    -1.000000   179.999999    -0.500000    -0.866025     0.000000     0.000000     0.000000     0.000000
 
 Subroutine IBZKPT returns following result:
 ===========================================
 
 Found     13 irreducible k-points:
 
 Following reciprocal coordinates:
            Coordinates               Weight
  0.000000  0.000000  0.000000      1.000000
  0.166667 -0.000000  0.000000      2.000000
  0.333333  0.000000  0.000000      2.000000
  0.500000 -0.000000  0.000000      1.000000
  0.000000  0.166667  0.000000      4.000000
  0.333333  0.166667  0.000000      4.000000
  0.500000  0.166667  0.000000      4.000000
  0.000000  0.333333  0.000000      4.000000
  0.166667  0.333333  0.000000      2.000000
  0.500000  0.333333  0.000000      4.000000
 -0.333333  0.333333  0.000000      2.000000
  0.000000  0.500000  0.000000      2.000000
  0.166667  0.500000  0.000000      4.000000
 
 Following cartesian coordinates:
            Coordinates               Weight
  0.000000  0.000000  0.000000      1.000000
  0.033203 -0.019170  0.000000      2.000000
  0.066405 -0.038339  0.000000      2.000000
  0.099608 -0.057509  0.000000      1.000000
  0.000000  0.038339  0.000000      4.000000
  0.066405 -0.000000  0.000000      4.000000
  0.099608 -0.019170  0.000000      4.000000
  0.000000  0.076678  0.000000      4.000000
  0.033203  0.057509  0.000000      2.000000
  0.099608  0.019170  0.000000      4.000000
 -0.066405  0.115017  0.000000      2.000000
  0.000000  0.115017  0.000000      2.000000
  0.033203  0.095848  0.000000      4.000000
 


--------------------------------------------------------------------------------------------------------




 Dimension of arrays:
   k-points           NKPTS =     13   k-points in BZ     NKDIM =     13   number of bands    NBANDS=    168
   number of dos      NEDOS =    301   number of ions     NIONS =     17
   non local maximal  LDIM  =      6   non local SUM 2l+1 LMDIM =     18
   total plane-waves  NPLWV = 233280
   max r-space proj   IRMAX =      1   max aug-charges    IRDMAX=   8246
   dimension x,y,z NGX =    36 NGY =   36 NGZ =  180
   dimension x,y,z NGXF=    72 NGYF=   72 NGZF=  360
   support grid    NGXF=    72 NGYF=   72 NGZF=  360
   ions per type =              16   1
 NGX,Y,Z   is equivalent  to a cutoff of  11.92, 11.92, 11.42 a.u.
 NGXF,Y,Z  is equivalent  to a cutoff of  23.85, 23.85, 22.84 a.u.


 I would recommend the setting:
   dimension x,y,z NGX =    33 NGY =   33 NGZ =  171
 SYSTEM =  unknown system                          
 POSCAR =  test                                    

 Startparameter for this run:
   NWRITE =      2    write-flag & timer
   PREC   = accura    normal or accurate (medium, high low for compatibility)
   ISTART =      0    job   : 0-new  1-cont  2-samecut
   ICHARG =      2    charge: 1-file 2-atom 10-const
   ISPIN  =      1    spin polarized calculation?
   LNONCOLLINEAR =      F non collinear calculations
   LSORBIT =      F    spin-orbit coupling
   INIWAV =      1    electr: 0-lowe 1-rand  2-diag
   LASPH  =      T    aspherical Exc in radial PAW
   METAGGA=      F    non-selfconsistent MetaGGA calc.

 Electronic Relaxation 1
   ENCUT  =  400.0 eV  29.40 Ry    5.42 a.u.   8.19  8.19 42.74*2*pi/ulx,y,z
   ENINI  =  400.0     initial cutoff
   ENAUG  =  758.2 eV  augmentation charge cutoff
   NELM   =     60;   NELMIN=  5; NELMDL= -5     # of ELM steps 
   EDIFF  = 0.1E-04   stopping-criterion for ELM
   LREAL  =      F    real-space projection
   NLSPLINE    = F    spline interpolate recip. space projectors
   LCOMPAT=      F    compatible to vasp.4.4
   GGA_COMPAT  = T    GGA compatible to vasp.4.4-vasp.4.6
   LMAXPAW     = -100 max onsite density
   LMAXMIX     =    2 max onsite mixed and CHGCAR
   VOSKOWN=      0    Vosko Wilk Nusair interpolation
   ROPT   =    0.00000   0.00000
 Ionic relaxation
   EDIFFG = 0.1E-03   stopping-criterion for IOM
   NSW    =    150    number of steps for IOM
   NBLOCK =      1;   KBLOCK =    150    inner block; outer block 
   IBRION =      2    ionic relax: 0-MD 1-quasi-New 2-CG
   NFREE  =      1    steps in history (QN), initial steepest desc. (CG)
   ISIF   =      2    stress and relaxation
   IWAVPR =     11    prediction:  0-non 1-charg 2-wave 3-comb
   ISYM   =      2    0-nonsym 1-usesym 2-fastsym
   LCORR  =      T    Harris-Foulkes like correction to forces

   POTIM  = 0.5000    time-step for ionic-motion
   TEIN   =    0.0    initial temperature
   TEBEG  =    0.0;   TEEND  =   0.0 temperature during run
   SMASS  =  -3.00    Nose mass-parameter (am)
   estimated Nose-frequenzy (Omega)   =  0.10E-29 period in steps =****** mass=  -0.576E-27a.u.
   SCALEE = 1.0000    scale energy and forces
   NPACO  =    256;   APACO  = 16.0  distance and # of slots for P.C.
   PSTRESS=    0.0 pullay stress

  Mass of Ions in am
   POMASS =  63.55 12.01
  Ionic Valenz
   ZVAL   =  17.00  4.00
  Atomic Wigner-Seitz radii
   RWIGS  =  -1.00 -1.00
  virtual crystal weights 
   VCA    =   1.00  1.00
   NELECT =     276.0000    total number of electrons
   NUPDOWN=      -1.0000    fix difference up-down

 DOS related values:
   EMIN   =  10.00;   EMAX   =-10.00  energy-range for DOS
   EFERMI =   0.00
   ISMEAR =     0;   SIGMA  =   0.10  broadening in eV -4-tet -1-fermi 0-gaus

 Electronic relaxation 2 (details)
   IALGO  =     38    algorithm
   LDIAG  =      T    sub-space diagonalisation (order eigenvalues)
   LSUBROT=      F    optimize rotation matrix (better conditioning)
   TURBO    =      0    0=normal 1=particle mesh
   IRESTART =      0    0=no restart 2=restart with 2 vectors
   NREBOOT  =      0    no. of reboots
   NMIN     =      0    reboot dimension
   EREF     =   0.00    reference energy to select bands
   IMIX   =      4    mixing-type and parameters
     AMIX     =   0.40;   BMIX     =  1.00
     AMIX_MAG =   1.60;   BMIX_MAG =  1.00
     AMIN     =   0.10
     WC   =   100.;   INIMIX=   1;  MIXPRE=   1;  MAXMIX= -45

 Intra band minimization:
   WEIMIN = 0.0010     energy-eigenvalue tresh-hold
   EBREAK =  0.15E-07  absolut break condition
   DEPER  =   0.30     relativ break condition  

   TIME   =   0.40     timestep for ELM

  volume/ion in A,a.u.               =      33.64       227.02
  Fermi-wavevector in a.u.,A,eV,Ry     =   1.284127  2.426648 22.435767  1.648982
  Thomas-Fermi vector in A             =   2.416339
 
 Write flags
   LWAVE  =      F    write WAVECAR
   LCHARG =      F    write CHGCAR
   LVTOT  =      F    write LOCPOT, total local potential
   LVHAR  =      F    write LOCPOT, Hartree potential only
   LELF   =      F    write electronic localiz. function (ELF)
   LORBIT =     10    0 simple, 1 ext, 2 COOP (PROOUT)


 Dipole corrections
   LMONO  =      F    monopole corrections only (constant potential shift)
   LDIPOL =      T    correct potential (dipole corrections)
   IDIPOL =      3    1-x, 2-y, 3-z, 4-all directions 
   EPSILON=  1.0000000 bulk dielectric constant

 Exchange correlation treatment:
   GGA     =    --    GGA type
   LEXCH   =     8    internal setting for exchange type
   VOSKOWN=      0    Vosko Wilk Nusair interpolation
   LHFCALC =     F    Hartree Fock is set to
   LHFONE  =     F    Hartree Fock one center treatment
   AEXX    =    0.0000 exact exchange contribution

 Linear response parameters
   LEPSILON=     F    determine dielectric tensor
   LRPA    =     F    only Hartree local field effects (RPA)
   LNABLA  =     F    use nabla operator in PAW spheres
   LVEL    =     F    velocity operator in full k-point grid
   LINTERFAST=   F  fast interpolation
   KINTER  =     0    interpolate to denser k-point grid
   CSHIFT  =0.1000    complex shift for real part using Kramers Kronig
   OMEGAMAX=  -1.0    maximum frequency
   DEG_THRESHOLD= 0.2000000E-02 threshold for treating states as degnerate
   RTIME   =    0.100 relaxation time in fs

 Orbital magnetization related:
   ORBITALMAG=     F  switch on orbital magnetization
   LCHIMAG   =     F  perturbation theory with respect to B field
   DQ        =  0.001000  dq finite difference perturbation B field



--------------------------------------------------------------------------------------------------------


 conjugate gradient relaxation of ions
   using selective dynamics as specified on POSCAR
 charge density and potential will be updated during run
 non-spin polarized calculation
 Variant of blocked Davidson
 Davidson routine will perform the subspace rotation
 perform sub-space diagonalisation
    after iterative eigenvector-optimisation
 modified Broyden-mixing scheme, WC =      100.0
 initial mixing is a Kerker type mixing with AMIX =  0.4000 and BMIX =      1.0000
 Hartree-type preconditioning will be used
 using additional bands           30
 reciprocal scheme for non local part
 use partial core corrections
 calculate Harris-corrections to forces 
   (improved forces if not selfconsistent)
 use gradient corrections 
 use of overlap-Matrix (Vanderbilt PP)
 Gauss-broadening in eV      SIGMA  =   0.10


--------------------------------------------------------------------------------------------------------


  energy-cutoff  :      400.00
  volume of cell :      571.89
      direct lattice vectors                 reciprocal lattice vectors
     5.019694805  0.000000000  0.000000000     0.199215299 -0.115017006  0.000000000
     2.509847403  4.347183220  0.000000000     0.000000000  0.230034013  0.000000000
     0.000000000  0.000000000 26.207422256     0.000000000  0.000000000  0.038157129

  length of vectors
     5.019694805  5.019694805 26.207422256     0.230034013  0.230034013  0.038157129


 
 k-points in units of 2pi/SCALE and weight: A                                       
   0.00000000  0.00000000  0.00000000       0.028
   0.03320255 -0.01916950  0.00000000       0.056
   0.06640510 -0.03833900  0.00000000       0.056
   0.09960765 -0.05750850  0.00000000       0.028
   0.00000000  0.03833900  0.00000000       0.111
   0.06640510 -0.00000000  0.00000000       0.111
   0.09960765 -0.01916950  0.00000000       0.111
   0.00000000  0.07667800  0.00000000       0.111
   0.03320255  0.05750850  0.00000000       0.056
   0.09960765  0.01916950  0.00000000       0.111
  -0.06640510  0.11501701  0.00000000       0.056
   0.00000000  0.11501701  0.00000000       0.056
   0.03320255  0.09584751  0.00000000       0.111
 
 k-points in reciprocal lattice and weights: A                                       
   0.00000000  0.00000000  0.00000000       0.028
   0.16666667 -0.00000000  0.00000000       0.056
   0.33333333  0.00000000  0.00000000       0.056
   0.50000000 -0.00000000  0.00000000       0.028
   0.00000000  0.16666667  0.00000000       0.111
   0.33333333  0.16666667  0.00000000       0.111
   0.50000000  0.16666667  0.00000000       0.111
   0.00000000  0.33333333  0.00000000       0.111
   0.16666667  0.33333333  0.00000000       0.056
   0.50000000  0.33333333  0.00000000       0.111
  -0.33333333  0.33333333  0.00000000       0.056
   0.00000000  0.50000000  0.00000000       0.056
   0.16666667  0.50000000  0.00000000       0.111
 
 position of ions in fractional coordinates (direct lattice) 
   0.00000000  0.00000000  0.00000000
   0.00000000  0.50000000  0.00000000
   0.50000000  0.00000000  0.00000000
   0.50000000  0.50000000  0.00000000
   0.16666667  0.16666667  0.07819471
   0.16666667  0.66666669  0.07819471
   0.66666669  0.16666667  0.07819471
   0.66666669  0.66666669  0.07819471
   0.33361860  0.33319071  0.15703898
   0.33361860  0.83319074  0.15703898
   0.83218972  0.33390517  0.15703578
   0.83218972  0.83390520  0.15703578
   0.99347096  0.00326452  0.23776036
   0.99347096  0.50326452  0.23776036
   0.51082144  0.99458928  0.23886979
   0.51082144  0.49458928  0.23886979
   0.31681801  0.34159101  0.28491588
 
 position of ions in cartesian coordinates  (Angst):
   0.00000000  0.00000000  0.00000000
   1.25492370  2.17359161  0.00000000
   2.50984740  0.00000000  0.00000000
   3.76477110  2.17359161  0.00000000
   1.25492374  0.72453056  2.04928173
   2.50984748  2.89812224  2.04928173
   3.76477122  0.72453056  2.04928173
   5.01969496  2.89812224  2.04928173
   2.51092141  1.44844108  4.11558697
   3.76584519  3.62203282  4.11558697
   5.01538945  1.45154694  4.11550288
   6.27031322  3.62513869  4.11550288
   4.99511445  0.01419147  6.23108616
   6.25003816  2.18778308  6.23108616
   5.06043505  4.32366183  6.26016151
   3.80551135  2.15007022  6.26016151
   2.44767103  1.48495870  7.46691081
 


--------------------------------------------------------------------------------------------------------


 k-point  1 :   0.0000 0.0000 0.0000  plane waves:   10399
 k-point  2 :   0.1667-0.0000 0.0000  plane waves:   10358
 k-point  3 :   0.3333 0.0000 0.0000  plane waves:   10412
 k-point  4 :   0.5000-0.0000 0.0000  plane waves:   10390
 k-point  5 :   0.0000 0.1667 0.0000  plane waves:   10358
 k-point  6 :   0.3333 0.1667 0.0000  plane waves:   10394
 k-point  7 :   0.5000 0.1667 0.0000  plane waves:   10385
 k-point  8 :   0.0000 0.3333 0.0000  plane waves:   10412
 k-point  9 :   0.1667 0.3333 0.0000  plane waves:   10394
 k-point 10 :   0.5000 0.3333 0.0000  plane waves:   10385
 k-point 11 :  -0.3333 0.3333 0.0000  plane waves:   10356
 k-point 12 :   0.0000 0.5000 0.0000  plane waves:   10390
 k-point 13 :   0.1667 0.5000 0.0000  plane waves:   10385

 maximum and minimum number of plane-waves per node :      1320     1280

 maximum number of plane-waves:     10412
 maximum index in each direction: 
   IXMAX=    8   IYMAX=    8   IZMAX=   42
   IXMIN=   -8   IYMIN=   -8   IZMIN=  -42

 NGX is ok and might be reduce to  34
 NGY is ok and might be reduce to  34
 NGZ is ok and might be reduce to 170

 parallel 3D FFT for wavefunctions:
    minimum data exchange during FFTs selected (reduces bandwidth)
 parallel 3D FFT for charge:
    minimum data exchange during FFTs selected (reduces bandwidth)


 total amount of memory used by VASP on root node    56266. kBytes
========================================================================

   base      :      30000. kBytes
   nonl-proj :       5268. kBytes
   fftplans  :       3436. kBytes
   grid      :       5670. kBytes
   one-center:         46. kBytes
   wavefun   :      11846. kBytes
 
     INWAV:  cpu time    0.00: real time    0.00
 Broyden mixing: mesh for mixing (old mesh)
   NGX = 17   NGY = 17   NGZ = 85
  (NGX  = 72   NGY  = 72   NGZ  =360)
  gives a total of  24565 points

 initial charge density was supplied:
 charge density of overlapping atoms calculated
 number of electron     276.0000000 magnetization 
 keeping initial charge density in first step


--------------------------------------------------------------------------------------------------------


 Maximum index for augmentation-charges          715 (set IRDMAX)


--------------------------------------------------------------------------------------------------------


 First call to EWALD:  gamma=   0.214
 Maximum number of real-space cells 5x 5x 1
 Maximum number of reciprocal cells 2x 2x 8

 FEWALD executed in parallel
    FEWALD:  cpu time    0.00: real time    0.00


----------------------------------------- Iteration    1(   1)  ---------------------------------------


    POTLOK:  cpu time    0.09: real time    0.09
    SETDIJ:  cpu time    0.27: real time    0.27
     EDDAV:  cpu time   11.06: real time   11.08
       DOS:  cpu time    0.00: real time    0.00
    --------------------------------------------
      LOOP:  cpu time   11.42: real time   11.44

 eigenvalue-minimisations  :  5488
 total energy-change (2. order) : 0.2695709E+04  (-0.1791655E+05)
 number of electron     276.0000000 magnetization 
 augmentation part      276.0000000 magnetization 

 DIPCOR: dipole corrections for dipol
 direction  3 min pos   225,
 dipolmoment           0.000000      0.000000      0.000010 electrons x Angstroem
 Tr[quadrupol]     -1352.370400

 energy correction for charged system         0.000000 eV
 dipol+quadrupol energy correction           -0.000000 eV
 added-field ion interaction          0.000032 eV  (added to PSCEN)


 Free energy of the ion-electron system (eV)
  ---------------------------------------------------
  alpha Z        PSCENC =       831.83602239
  Ewald energy   TEWEN  =    282623.77790592
  -Hartree energ DENC   =   -341810.08915295
  -exchange      EXHF   =         0.00000000
  -V(xc)+E(xc)   XCENC  =      1745.13423276
  PAW double counting   =     55786.54480181   -58178.33743849
  entropy T*S    EENTRO =        -0.01598634
  eigenvalues    EBANDS =     -4370.59596790
  atomic energy  EATOM  =     66067.45489428
  ---------------------------------------------------
  free energy    TOTEN  =      2695.70931148 eV

  energy without entropy =     2695.72529782  energy(sigma->0) =     2695.71730465


--------------------------------------------------------------------------------------------------------




----------------------------------------- Iteration    1(   2)  ---------------------------------------


     EDDAV:  cpu time    9.72: real time    9.73
       DOS:  cpu time    0.00: real time    0.00
    --------------------------------------------
      LOOP:  cpu time    9.73: real time    9.89

 eigenvalue-minimisations  :  4600
 total energy-change (2. order) :-0.2629717E+04  (-0.2560886E+04)
 number of electron     276.0000000 magnetization 
 augmentation part      276.0000000 magnetization 

 DIPCOR: dipole corrections for dipol
 direction  3 min pos   225,
 dipolmoment           0.000000      0.000000      0.000010 electrons x Angstroem
 Tr[quadrupol]     -1352.370400

 energy correction for charged system         0.000000 eV
 dipol+quadrupol energy correction           -0.000000 eV
 added-field ion interaction          0.000032 eV  (added to PSCEN)


 Free energy of the ion-electron system (eV)
  ---------------------------------------------------
  alpha Z        PSCENC =       831.83602239
  Ewald energy   TEWEN  =    282623.77790592
  -Hartree energ DENC   =   -341810.08915295
  -exchange      EXHF   =         0.00000000
  -V(xc)+E(xc)   XCENC  =      1745.13423276
  PAW double counting   =     55786.54480181   -58178.33743849
  entropy T*S    EENTRO =        -0.04172451
  eigenvalues    EBANDS =     -7000.28756734
  atomic energy  EATOM  =     66067.45489428
  ---------------------------------------------------
  free energy    TOTEN  =        65.99197387 eV

  energy without entropy =       66.03369839  energy(sigma->0) =       66.01283613


--------------------------------------------------------------------------------------------------------




----------------------------------------- Iteration    1(   3)  ---------------------------------------


     EDDAV:  cpu time    9.96: real time    9.98
       DOS:  cpu time    0.00: real time    0.00
    --------------------------------------------
      LOOP:  cpu time    9.97: real time   10.14

 eigenvalue-minimisations  :  4768
 total energy-change (2. order) :-0.1413883E+03  (-0.1374887E+03)
 number of electron     276.0000000 magnetization 
 augmentation part      276.0000000 magnetization 

 DIPCOR: dipole corrections for dipol
 direction  3 min pos   225,
 dipolmoment           0.000000      0.000000      0.000010 electrons x Angstroem
 Tr[quadrupol]     -1352.370400

 energy correction for charged system         0.000000 eV
 dipol+quadrupol energy correction           -0.000000 eV
 added-field ion interaction          0.000032 eV  (added to PSCEN)


 Free energy of the ion-electron system (eV)
  ---------------------------------------------------
  alpha Z        PSCENC =       831.83602239
  Ewald energy   TEWEN  =    282623.77790592
  -Hartree energ DENC   =   -341810.08915295
  -exchange      EXHF   =         0.00000000
  -V(xc)+E(xc)   XCENC  =      1745.13423276
  PAW double counting   =     55786.54480181   -58178.33743849
  entropy T*S    EENTRO =        -0.04174453
  eigenvalues    EBANDS =     -7141.67588564
  atomic energy  EATOM  =     66067.45489428
  ---------------------------------------------------
  free energy    TOTEN  =       -75.39636445 eV

  energy without entropy =      -75.35461992  energy(sigma->0) =      -75.37549218


--------------------------------------------------------------------------------------------------------




----------------------------------------- Iteration    1(   4)  ---------------------------------------


     EDDAV:  cpu time    9.78: real time    9.79
       DOS:  cpu time    0.00: real time    0.00
    --------------------------------------------
      LOOP:  cpu time    9.78: real time    9.94

 eigenvalue-minimisations  :  4648
 total energy-change (2. order) :-0.4006192E+01  (-0.3974924E+01)
 number of electron     276.0000000 magnetization 
 augmentation part      276.0000000 magnetization 

 DIPCOR: dipole corrections for dipol
 direction  3 min pos   225,
 dipolmoment           0.000000      0.000000      0.000010 electrons x Angstroem
 Tr[quadrupol]     -1352.370400

 energy correction for charged system         0.000000 eV
 dipol+quadrupol energy correction           -0.000000 eV
 added-field ion interaction          0.000032 eV  (added to PSCEN)


 Free energy of the ion-electron system (eV)
  ---------------------------------------------------
  alpha Z        PSCENC =       831.83602239
  Ewald energy   TEWEN  =    282623.77790592
  -Hartree energ DENC   =   -341810.08915295
  -exchange      EXHF   =         0.00000000
  -V(xc)+E(xc)   XCENC  =      1745.13423276
  PAW double counting   =     55786.54480181   -58178.33743849
  entropy T*S    EENTRO =        -0.04112903
  eigenvalues    EBANDS =     -7145.68269358
  atomic energy  EATOM  =     66067.45489428
  ---------------------------------------------------
  free energy    TOTEN  =       -79.40255688 eV

  energy without entropy =      -79.36142785  energy(sigma->0) =      -79.38199236


--------------------------------------------------------------------------------------------------------




----------------------------------------- Iteration    1(   5)  ---------------------------------------


     EDDAV:  cpu time   10.36: real time   10.37
       DOS:  cpu time    0.00: real time    0.00
    CHARGE:  cpu time    0.59: real time    0.59
    MIXING:  cpu time    0.00: real time    0.00
    --------------------------------------------
      LOOP:  cpu time   10.95: real time   11.15

 eigenvalue-minimisations  :  5040
 total energy-change (2. order) :-0.1450642E+00  (-0.1450324E+00)
 number of electron     275.9999455 magnetization 
 augmentation part      165.2788209 magnetization 

 DIPCOR: dipole corrections for dipol
 direction  3 min pos   225,
 dipolmoment           0.000000      0.000000      0.000010 electrons x Angstroem
 Tr[quadrupol]     -1352.370400

 energy correction for charged system         0.000000 eV
 dipol+quadrupol energy correction           -0.000000 eV
 added-field ion interaction          0.000032 eV  (added to PSCEN)


 Broyden mixing:
  rms(total) = 0.40101E+01    rms(broyden)= 0.40088E+01
  rms(prec ) = 0.41767E+01
  weight for this iteration     100.00

 Free energy of the ion-electron system (eV)
  ---------------------------------------------------
  alpha Z        PSCENC =       831.83602239
  Ewald energy   TEWEN  =    282623.77790592
  -Hartree energ DENC   =   -341810.08915295
  -exchange      EXHF   =         0.00000000
  -V(xc)+E(xc)   XCENC  =      1745.13423276
  PAW double counting   =     55786.54480181   -58178.33743849
  entropy T*S    EENTRO =        -0.04108939
  eigenvalues    EBANDS =     -7145.82779745
  atomic energy  EATOM  =     66067.45489428
  ---------------------------------------------------
  free energy    TOTEN  =       -79.54762112 eV

  energy without entropy =      -79.50653173  energy(sigma->0) =      -79.52707642


--------------------------------------------------------------------------------------------------------




----------------------------------------- Iteration    1(   6)  ---------------------------------------


    POTLOK:  cpu time    0.08: real time    0.08
    SETDIJ:  cpu time    0.27: real time    0.27
     EDDAV:  cpu time   10.34: real time   10.35
       DOS:  cpu time    0.00: real time    0.00
    CHARGE:  cpu time    0.58: real time    0.59
    MIXING:  cpu time    0.00: real time    0.00
    --------------------------------------------
      LOOP:  cpu time   11.28: real time   11.39

 eigenvalue-minimisations  :  5088
 total energy-change (2. order) :-0.4140197E+01  (-0.2002465E+02)
 number of electron     275.9999401 magnetization 
 augmentation part      179.6059449 magnetization 

 DIPCOR: dipole corrections for dipol
 direction  3 min pos   226,
 dipolmoment           0.000000      0.000000      0.622034 electrons x Angstroem
 Tr[quadrupol]     -1350.009357

 energy correction for charged system         0.000000 eV
 dipol+quadrupol energy correction           -0.061215 eV
 added-field ion interaction          5.978986 eV  (added to PSCEN)


 Broyden mixing:
  rms(total) = 0.50516E+01    rms(broyden)= 0.50510E+01
  rms(prec ) = 0.53408E+01
  weight for this iteration     100.00

 eigenvalues of (default mixing * dielectric matrix)
  average eigenvalue GAMMA=   0.3971
  0.3971

 Free energy of the ion-electron system (eV)
  ---------------------------------------------------
  alpha Z        PSCENC =       837.75376140
  Ewald energy   TEWEN  =    282623.77790592
  -Hartree energ DENC   =   -340650.95967808
  -exchange      EXHF   =         0.00000000
  -V(xc)+E(xc)   XCENC  =      1711.57349961
  PAW double counting   =     55126.34089178   -57452.36284671
  entropy T*S    EENTRO =        -0.03774247
  eigenvalues    EBANDS =     -8347.22850340
  atomic energy  EATOM  =     66067.45489428
  ---------------------------------------------------
  free energy    TOTEN  =       -83.68781767 eV

  energy without entropy =      -83.65007520  energy(sigma->0) =      -83.66894643


--------------------------------------------------------------------------------------------------------




----------------------------------------- Iteration    1(   7)  ---------------------------------------


    POTLOK:  cpu time    0.09: real time    0.09
    SETDIJ:  cpu time    0.27: real time    0.27
     EDDAV:  cpu time   11.40: real time   11.42
       DOS:  cpu time    0.00: real time    0.00
    CHARGE:  cpu time    0.59: real time    0.59
    MIXING:  cpu time    0.00: real time    0.00
    --------------------------------------------
      LOOP:  cpu time   12.36: real time   12.41

 eigenvalue-minimisations  :  5816
 total energy-change (2. order) : 0.1532653E+02  (-0.8056392E+01)
 number of electron     275.9999428 magnetization 
 augmentation part      175.8349654 magnetization 

 DIPCOR: dipole corrections for dipol
 direction  3 min pos   225,
 dipolmoment           0.000000      0.000000     -0.370418 electrons x Angstroem
 Tr[quadrupol]     -1351.894839

 energy correction for charged system         0.000000 eV
 dipol+quadrupol energy correction           -0.021708 eV
 added-field ion interaction         -1.205513 eV  (added to PSCEN)


 Broyden mixing:
  rms(total) = 0.32402E+01    rms(broyden)= 0.32395E+01
  rms(prec ) = 0.36299E+01
  weight for this iteration     100.00

 eigenvalues of (default mixing * dielectric matrix)
  average eigenvalue GAMMA=   0.4290
  0.4290  0.4290

 Free energy of the ion-electron system (eV)
  ---------------------------------------------------
  alpha Z        PSCENC =       830.60876908
  Ewald energy   TEWEN  =    282623.77790592
  -Hartree energ DENC   =   -341054.47912754
  -exchange      EXHF   =         0.00000000
  -V(xc)+E(xc)   XCENC  =      1719.83096649
  PAW double counting   =     56173.58294095   -58556.87399756
  entropy T*S    EENTRO =        -0.04838261
  eigenvalues    EBANDS =     -7872.21526051
  atomic energy  EATOM  =     66067.45489428
  ---------------------------------------------------
  free energy    TOTEN  =       -68.36129150 eV

  energy without entropy =      -68.31290889  energy(sigma->0) =      -68.33710019


--------------------------------------------------------------------------------------------------------




----------------------------------------- Iteration    1(   8)  ---------------------------------------


    POTLOK:  cpu time    0.08: real time    0.08
    SETDIJ:  cpu time    0.27: real time    0.27
     EDDAV:  cpu time   10.96: real time   10.97
       DOS:  cpu time    0.00: real time    0.00
    CHARGE:  cpu time    0.59: real time    0.59
    MIXING:  cpu time    0.00: real time    0.00
    --------------------------------------------
      LOOP:  cpu time   11.91: real time   12.04

 eigenvalue-minimisations  :  5528
 total energy-change (2. order) :-0.2531034E+01  (-0.5956024E+01)
 number of electron     275.9999410 magnetization 
 augmentation part      175.4816955 magnetization 

 DIPCOR: dipole corrections for dipol
 direction  3 min pos   222,
 dipolmoment           0.000000      0.000000      0.592990 electrons x Angstroem
 Tr[quadrupol]     -1351.651255

 energy correction for charged system         0.000000 eV
 dipol+quadrupol energy correction           -0.055632 eV
 added-field ion interaction         -9.379981 eV  (added to PSCEN)


 Broyden mixing:
  rms(total) = 0.22328E+01    rms(broyden)= 0.22317E+01
  rms(prec ) = 0.28443E+01
  weight for this iteration     100.00

 eigenvalues of (default mixing * dielectric matrix)
  average eigenvalue GAMMA=   0.6828
  1.1772  0.6721  0.1992

 Free energy of the ion-electron system (eV)
  ---------------------------------------------------
  alpha Z        PSCENC =       822.40037700
  Ewald energy   TEWEN  =    282623.77790592
  -Hartree energ DENC   =   -341079.64332641
  -exchange      EXHF   =         0.00000000
  -V(xc)+E(xc)   XCENC  =      1721.49674365
  PAW double counting   =     56476.62816789   -58879.46310146
  entropy T*S    EENTRO =        -0.04660185
  eigenvalues    EBANDS =     -7823.49738499
  atomic energy  EATOM  =     66067.45489428
  ---------------------------------------------------
  free energy    TOTEN  =       -70.89232597 eV

  energy without entropy =      -70.84572412  energy(sigma->0) =      -70.86902504


--------------------------------------------------------------------------------------------------------




----------------------------------------- Iteration    1(   9)  ---------------------------------------


    POTLOK:  cpu time    0.08: real time    0.08
    SETDIJ:  cpu time    0.27: real time    0.27
     EDDAV:  cpu time   10.76: real time   10.77
       DOS:  cpu time    0.00: real time    0.00
    CHARGE:  cpu time    0.59: real time    0.59
    MIXING:  cpu time    0.00: real time    0.00
    --------------------------------------------
      LOOP:  cpu time   11.71: real time   11.77

 eigenvalue-minimisations  :  5424
 total energy-change (2. order) : 0.6564936E+01  (-0.5477083E+01)
 number of electron     275.9999432 magnetization 
 augmentation part      173.4716508 magnetization 

 DIPCOR: dipole corrections for dipol
 direction  3 min pos   221,
 dipolmoment           0.000000      0.000000     -0.178590 electrons x Angstroem
 Tr[quadrupol]     -1352.558065

 energy correction for charged system         0.000000 eV
 dipol+quadrupol energy correction           -0.005046 eV
 added-field ion interaction          3.960338 eV  (added to PSCEN)


 Broyden mixing:
  rms(total) = 0.13207E+01    rms(broyden)= 0.13200E+01
  rms(prec ) = 0.16334E+01
  weight for this iteration     100.00

 eigenvalues of (default mixing * dielectric matrix)
  average eigenvalue GAMMA=   0.6477
  1.3501  0.6275  0.4339  0.1793

 Free energy of the ion-electron system (eV)
  ---------------------------------------------------
  alpha Z        PSCENC =       835.79128178
  Ewald energy   TEWEN  =    282623.77790592
  -Hartree energ DENC   =   -341213.65001997
  -exchange      EXHF   =         0.00000000
  -V(xc)+E(xc)   XCENC  =      1724.42660409
  PAW double counting   =     57297.79069897   -59759.16699999
  entropy T*S    EENTRO =        -0.05082052
  eigenvalues    EBANDS =     -7640.70093411
  atomic energy  EATOM  =     66067.45489428
  ---------------------------------------------------
  free energy    TOTEN  =       -64.32738953 eV

  energy without entropy =      -64.27656901  energy(sigma->0) =      -64.30197927


--------------------------------------------------------------------------------------------------------




----------------------------------------- Iteration    1(  10)  ---------------------------------------


    POTLOK:  cpu time    0.09: real time    0.09
    SETDIJ:  cpu time    0.27: real time    0.27
     EDDAV:  cpu time   10.76: real time   10.78
       DOS:  cpu time    0.00: real time    0.00
    CHARGE:  cpu time    0.59: real time    0.59
    MIXING:  cpu time    0.00: real time    0.00
    --------------------------------------------
      LOOP:  cpu time   11.70: real time   11.77

 eigenvalue-minimisations  :  5416
 total energy-change (2. order) : 0.1928672E+01  (-0.1058812E+01)
 number of electron     275.9999424 magnetization 
 augmentation part      173.3453749 magnetization 

 DIPCOR: dipole corrections for dipol
 direction  3 min pos   218,
 dipolmoment           0.000000      0.000000     -0.013406 electrons x Angstroem
 Tr[quadrupol]     -1351.977096

 energy correction for charged system         0.000000 eV
 dipol+quadrupol energy correction           -0.000028 eV
 added-field ion interaction          0.552978 eV  (added to PSCEN)


 Broyden mixing:
  rms(total) = 0.51666E+00    rms(broyden)= 0.51618E+00
  rms(prec ) = 0.62188E+00
  weight for this iteration     100.00

 eigenvalues of (default mixing * dielectric matrix)
  average eigenvalue GAMMA=   0.6557
  1.5193  0.6295  0.6295  0.1809  0.3194

 Free energy of the ion-electron system (eV)
  ---------------------------------------------------
  alpha Z        PSCENC =       832.38893962
  Ewald energy   TEWEN  =    282623.77790592
  -Hartree energ DENC   =   -341164.93629110
  -exchange      EXHF   =         0.00000000
  -V(xc)+E(xc)   XCENC  =      1724.31042994
  PAW double counting   =     57430.72091068   -59898.56529694
  entropy T*S    EENTRO =        -0.04718396
  eigenvalues    EBANDS =     -7677.50302610
  atomic energy  EATOM  =     66067.45489428
  ---------------------------------------------------
  free energy    TOTEN  =       -62.39871766 eV

  energy without entropy =      -62.35153369  energy(sigma->0) =      -62.37512568


--------------------------------------------------------------------------------------------------------




----------------------------------------- Iteration    1(  11)  ---------------------------------------


    POTLOK:  cpu time    0.08: real time    0.08
    SETDIJ:  cpu time    0.26: real time    0.26
     EDDAV:  cpu time   10.44: real time   10.45
       DOS:  cpu time    0.00: real time    0.00
    CHARGE:  cpu time    0.58: real time    0.59
    MIXING:  cpu time    0.00: real time    0.00
    --------------------------------------------
      LOOP:  cpu time   11.38: real time   11.44

 eigenvalue-minimisations  :  5192
 total energy-change (2. order) : 0.1130415E+00  (-0.5524496E+00)
 number of electron     275.9999422 magnetization 
 augmentation part      173.3516879 magnetization 

 DIPCOR: dipole corrections for dipol
 direction  3 min pos   221,
 dipolmoment           0.000000      0.000000      0.149886 electrons x Angstroem
 Tr[quadrupol]     -1352.290736

 energy correction for charged system         0.000000 eV
 dipol+quadrupol energy correction           -0.003554 eV
 added-field ion interaction         -3.323813 eV  (added to PSCEN)


 Broyden mixing:
  rms(total) = 0.48053E+00    rms(broyden)= 0.48034E+00
  rms(prec ) = 0.54034E+00
  weight for this iteration     100.00

 eigenvalues of (default mixing * dielectric matrix)
  average eigenvalue GAMMA=   0.6737
  1.6787  0.6807  0.6807  0.1839  0.4431  0.3750

 Free energy of the ion-electron system (eV)
  ---------------------------------------------------
  alpha Z        PSCENC =       828.50862265
  Ewald energy   TEWEN  =    282623.77790592
  -Hartree energ DENC   =   -341185.11484983
  -exchange      EXHF   =         0.00000000
  -V(xc)+E(xc)   XCENC  =      1723.76590401
  PAW double counting   =     57524.44352062   -59994.54049519
  entropy T*S    EENTRO =        -0.04235641
  eigenvalues    EBANDS =     -7650.53882222
  atomic energy  EATOM  =     66067.45489428
  ---------------------------------------------------
  free energy    TOTEN  =       -62.28567617 eV

  energy without entropy =      -62.24331976  energy(sigma->0) =      -62.26449797


--------------------------------------------------------------------------------------------------------




----------------------------------------- Iteration    1(  12)  ---------------------------------------


    POTLOK:  cpu time    0.08: real time    0.08
    SETDIJ:  cpu time    0.26: real time    0.26
     EDDAV:  cpu time    9.66: real time    9.67
       DOS:  cpu time    0.00: real time    0.00
    CHARGE:  cpu time    0.59: real time    0.59
    MIXING:  cpu time    0.00: real time    0.00
    --------------------------------------------
      LOOP:  cpu time   10.60: real time   10.67

 eigenvalue-minimisations  :  4680
 total energy-change (2. order) :-0.2798263E-01  (-0.1369524E+00)
 number of electron     275.9999422 magnetization 
 augmentation part      173.4805042 magnetization 

 DIPCOR: dipole corrections for dipol
 direction  3 min pos   223,
 dipolmoment           0.000000      0.000000      0.160517 electrons x Angstroem
 Tr[quadrupol]     -1352.546699

 energy correction for charged system         0.000000 eV
 dipol+quadrupol energy correction           -0.004076 eV
 added-field ion interaction         -1.518583 eV  (added to PSCEN)


 Broyden mixing:
  rms(total) = 0.26251E+00    rms(broyden)= 0.26248E+00
  rms(prec ) = 0.33167E+00
  weight for this iteration     100.00

 eigenvalues of (default mixing * dielectric matrix)
  average eigenvalue GAMMA=   0.6695
  1.7984  0.7180  0.7180  0.1830  0.4537  0.4537  0.3616

 Free energy of the ion-electron system (eV)
  ---------------------------------------------------
  alpha Z        PSCENC =       830.31333102
  Ewald energy   TEWEN  =    282623.77790592
  -Hartree energ DENC   =   -341191.95649696
  -exchange      EXHF   =         0.00000000
  -V(xc)+E(xc)   XCENC  =      1723.27280450
  PAW double counting   =     57614.24439280   -60084.53190893
  entropy T*S    EENTRO =        -0.04508603
  eigenvalues    EBANDS =     -7644.84349540
  atomic energy  EATOM  =     66067.45489428
  ---------------------------------------------------
  free energy    TOTEN  =       -62.31365880 eV

  energy without entropy =      -62.26857277  energy(sigma->0) =      -62.29111579


--------------------------------------------------------------------------------------------------------




----------------------------------------- Iteration    1(  13)  ---------------------------------------


    POTLOK:  cpu time    0.09: real time    0.09
    SETDIJ:  cpu time    0.27: real time    0.27
     EDDAV:  cpu time   10.31: real time   10.32
       DOS:  cpu time    0.00: real time    0.00
    CHARGE:  cpu time    0.59: real time    0.59
    MIXING:  cpu time    0.00: real time    0.00
    --------------------------------------------
      LOOP:  cpu time   11.25: real time   11.47

 eigenvalue-minimisations  :  5096
 total energy-change (2. order) : 0.7745460E-01  (-0.7180475E-01)
 number of electron     275.9999424 magnetization 
 augmentation part      173.4993353 magnetization 

 DIPCOR: dipole corrections for dipol
 direction  3 min pos   222,
 dipolmoment           0.000000      0.000000      0.104082 electrons x Angstroem
 Tr[quadrupol]     -1352.739877

 energy correction for charged system         0.000000 eV
 dipol+quadrupol energy correction           -0.001714 eV
 added-field ion interaction         -1.646385 eV  (added to PSCEN)


 Broyden mixing:
  rms(total) = 0.14169E+00    rms(broyden)= 0.14154E+00
  rms(prec ) = 0.15613E+00
  weight for this iteration     100.00

 eigenvalues of (default mixing * dielectric matrix)
  average eigenvalue GAMMA=   0.7225
  1.8448  0.8840  0.8840  0.6354  0.6354  0.1831  0.3567  0.3567

 Free energy of the ion-electron system (eV)
  ---------------------------------------------------
  alpha Z        PSCENC =       830.18789076
  Ewald energy   TEWEN  =    282623.77790592
  -Hartree energ DENC   =   -341196.68631224
  -exchange      EXHF   =         0.00000000
  -V(xc)+E(xc)   XCENC  =      1722.94623761
  PAW double counting   =     57727.96210835   -60199.30404188
  entropy T*S    EENTRO =        -0.05360746
  eigenvalues    EBANDS =     -7638.52127954
  atomic energy  EATOM  =     66067.45489428
  ---------------------------------------------------
  free energy    TOTEN  =       -62.23620420 eV

  energy without entropy =      -62.18259674  energy(sigma->0) =      -62.20940047


--------------------------------------------------------------------------------------------------------




----------------------------------------- Iteration    1(  14)  ---------------------------------------


    POTLOK:  cpu time    0.09: real time    0.09
    SETDIJ:  cpu time    0.27: real time    0.27
     EDDAV:  cpu time    9.81: real time    9.82
       DOS:  cpu time    0.00: real time    0.00
    CHARGE:  cpu time    0.59: real time    0.59
    MIXING:  cpu time    0.00: real time    0.00
    --------------------------------------------
      LOOP:  cpu time   10.76: real time   10.81

 eigenvalue-minimisations  :  4768
 total energy-change (2. order) :-0.1287163E-02  (-0.1824002E-01)
 number of electron     275.9999422 magnetization 
 augmentation part      173.6393027 magnetization 

 DIPCOR: dipole corrections for dipol
 direction  3 min pos   224,
 dipolmoment           0.000000      0.000000      0.115875 electrons x Angstroem
 Tr[quadrupol]     -1352.734328

 energy correction for charged system         0.000000 eV
 dipol+quadrupol energy correction           -0.002124 eV
 added-field ion interaction         -0.359567 eV  (added to PSCEN)


 Broyden mixing:
  rms(total) = 0.15964E+00    rms(broyden)= 0.15962E+00
  rms(prec ) = 0.16951E+00
  weight for this iteration     100.00

 eigenvalues of (default mixing * dielectric matrix)
  average eigenvalue GAMMA=   0.7627
  1.9757  1.0319  1.0319  0.7706  0.1831  0.5466  0.5466  0.4414  0.3366

 Free energy of the ion-electron system (eV)
  ---------------------------------------------------
  alpha Z        PSCENC =       831.47429856
  Ewald energy   TEWEN  =    282623.77790592
  -Hartree energ DENC   =   -341188.76363764
  -exchange      EXHF   =         0.00000000
  -V(xc)+E(xc)   XCENC  =      1722.80479647
  PAW double counting   =     57799.53657442   -60270.29363973
  entropy T*S    EENTRO =        -0.04697377
  eigenvalues    EBANDS =     -7648.18170987
  atomic energy  EATOM  =     66067.45489428
  ---------------------------------------------------
  free energy    TOTEN  =       -62.23749136 eV

  energy without entropy =      -62.19051759  energy(sigma->0) =      -62.21400448


--------------------------------------------------------------------------------------------------------




----------------------------------------- Iteration    1(  15)  ---------------------------------------


    POTLOK:  cpu time    0.09: real time    0.09
    SETDIJ:  cpu time    0.26: real time    0.27
     EDDAV:  cpu time   10.30: real time   10.31
       DOS:  cpu time    0.00: real time    0.00
    CHARGE:  cpu time    0.58: real time    0.59
    MIXING:  cpu time    0.00: real time    0.00
    --------------------------------------------
      LOOP:  cpu time   11.24: real time   11.27

 eigenvalue-minimisations  :  5104
 total energy-change (2. order) : 0.3089009E-02  (-0.4162251E-02)
 number of electron     275.9999423 magnetization 
 augmentation part      173.6417544 magnetization 

 DIPCOR: dipole corrections for dipol
 direction  3 min pos   219,
 dipolmoment           0.000000      0.000000      0.117542 electrons x Angstroem
 Tr[quadrupol]     -1352.893374

 energy correction for charged system         0.000000 eV
 dipol+quadrupol energy correction           -0.002186 eV
 added-field ion interaction         -4.101120 eV  (added to PSCEN)


 Broyden mixing:
  rms(total) = 0.11407E+00    rms(broyden)= 0.11407E+00
  rms(prec ) = 0.11889E+00
  weight for this iteration     100.00

 eigenvalues of (default mixing * dielectric matrix)
  average eigenvalue GAMMA=   0.8480
  2.8188  1.4687  0.7923  0.7923  0.6419  0.6419  0.1831  0.4276  0.3566  0.3566

 Free energy of the ion-electron system (eV)
  ---------------------------------------------------
  alpha Z        PSCENC =       827.73268473
  Ewald energy   TEWEN  =    282623.77790592
  -Hartree energ DENC   =   -341204.26684476
  -exchange      EXHF   =         0.00000000
  -V(xc)+E(xc)   XCENC  =      1722.77968169
  PAW double counting   =     57902.95424502   -60373.83670770
  entropy T*S    EENTRO =        -0.04929812
  eigenvalues    EBANDS =     -7628.78096342
  atomic energy  EATOM  =     66067.45489428
  ---------------------------------------------------
  free energy    TOTEN  =       -62.23440235 eV

  energy without entropy =      -62.18510423  energy(sigma->0) =      -62.20975329


--------------------------------------------------------------------------------------------------------




----------------------------------------- Iteration    1(  16)  ---------------------------------------


    POTLOK:  cpu time    0.09: real time    0.09
    SETDIJ:  cpu time    0.27: real time    0.27
     EDDAV:  cpu time    9.85: real time    9.86
       DOS:  cpu time    0.00: real time    0.00
    CHARGE:  cpu time    0.59: real time    0.59
    MIXING:  cpu time    0.00: real time    0.00
    --------------------------------------------
      LOOP:  cpu time   10.79: real time   10.85

 eigenvalue-minimisations  :  4880
 total energy-change (2. order) : 0.6633547E-02  (-0.2997283E-02)
 number of electron     275.9999423 magnetization 
 augmentation part      173.6522352 magnetization 

 DIPCOR: dipole corrections for dipol
 direction  3 min pos   212,
 dipolmoment           0.000000      0.000000      0.122456 electrons x Angstroem
 Tr[quadrupol]     -1352.989452

 energy correction for charged system         0.000000 eV
 dipol+quadrupol energy correction           -0.002372 eV
 added-field ion interaction         -9.722158 eV  (added to PSCEN)


 Broyden mixing:
  rms(total) = 0.52386E-01    rms(broyden)= 0.52373E-01
  rms(prec ) = 0.53077E-01
  weight for this iteration     100.00

 eigenvalues of (default mixing * dielectric matrix)
  average eigenvalue GAMMA=   0.8339
  2.0723  2.0723  0.9303  0.7929  0.7929  0.6050  0.6050  0.1831  0.3467  0.3865
  0.3865

 Free energy of the ion-electron system (eV)
  ---------------------------------------------------
  alpha Z        PSCENC =       822.11146012
  Ewald energy   TEWEN  =    282623.77790592
  -Hartree energ DENC   =   -341219.50857767
  -exchange      EXHF   =         0.00000000
  -V(xc)+E(xc)   XCENC  =      1722.72361317
  PAW double counting   =     58015.55760825   -60486.34021152
  entropy T*S    EENTRO =        -0.05186122
  eigenvalues    EBANDS =     -7607.95260013
  atomic energy  EATOM  =     66067.45489428
  ---------------------------------------------------
  free energy    TOTEN  =       -62.22776881 eV

  energy without entropy =      -62.17590758  energy(sigma->0) =      -62.20183819


--------------------------------------------------------------------------------------------------------




----------------------------------------- Iteration    1(  17)  ---------------------------------------


    POTLOK:  cpu time    0.08: real time    0.08
    SETDIJ:  cpu time    0.27: real time    0.27
     EDDAV:  cpu time   11.07: real time   11.08
       DOS:  cpu time    0.00: real time    0.00
    CHARGE:  cpu time    0.58: real time    0.58
    MIXING:  cpu time    0.00: real time    0.00
    --------------------------------------------
      LOOP:  cpu time   12.01: real time   12.05

 eigenvalue-minimisations  :  5752
 total energy-change (2. order) :-0.3866207E-03  (-0.6966733E-03)
 number of electron     275.9999423 magnetization 
 augmentation part      173.6584827 magnetization 

 DIPCOR: dipole corrections for dipol
 direction  3 min pos   209,
 dipolmoment           0.000000      0.000000      0.123581 electrons x Angstroem
 Tr[quadrupol]     -1352.964109

 energy correction for charged system         0.000000 eV
 dipol+quadrupol energy correction           -0.002416 eV
 added-field ion interaction        -12.168493 eV  (added to PSCEN)


 Broyden mixing:
  rms(total) = 0.40462E-01    rms(broyden)= 0.40458E-01
  rms(prec ) = 0.41978E-01
  weight for this iteration     100.00

 eigenvalues of (default mixing * dielectric matrix)
  average eigenvalue GAMMA=   0.7925
  2.1064  2.1064  0.9259  0.7954  0.7954  0.5881  0.5881  0.1831  0.3757  0.3757
  0.3695  0.3004

 Free energy of the ion-electron system (eV)
  ---------------------------------------------------
  alpha Z        PSCENC =       819.66508070
  Ewald energy   TEWEN  =    282623.77790592
  -Hartree energ DENC   =   -341222.50282354
  -exchange      EXHF   =         0.00000000
  -V(xc)+E(xc)   XCENC  =      1722.75652148
  PAW double counting   =     57982.37318614   -60452.28031418
  entropy T*S    EENTRO =        -0.05220058
  eigenvalues    EBANDS =     -7603.42040566
  atomic energy  EATOM  =     66067.45489428
  ---------------------------------------------------
  free energy    TOTEN  =       -62.22815543 eV

  energy without entropy =      -62.17595485  energy(sigma->0) =      -62.20205514


--------------------------------------------------------------------------------------------------------




----------------------------------------- Iteration    1(  18)  ---------------------------------------


    POTLOK:  cpu time    0.08: real time    0.08
    SETDIJ:  cpu time    0.27: real time    0.27
     EDDAV:  cpu time    9.42: real time    9.44
       DOS:  cpu time    0.00: real time    0.00
    CHARGE:  cpu time    0.59: real time    0.59
    MIXING:  cpu time    0.00: real time    0.00
    --------------------------------------------
      LOOP:  cpu time   10.37: real time   10.43

 eigenvalue-minimisations  :  4624
 total energy-change (2. order) :-0.6850572E-04  (-0.1652507E-03)
 number of electron     275.9999423 magnetization 
 augmentation part      173.6561358 magnetization 

 DIPCOR: dipole corrections for dipol
 direction  3 min pos   209,
 dipolmoment           0.000000      0.000000      0.123125 electrons x Angstroem
 Tr[quadrupol]     -1352.992354

 energy correction for charged system         0.000000 eV
 dipol+quadrupol energy correction           -0.002398 eV
 added-field ion interaction        -12.123650 eV  (added to PSCEN)


 Broyden mixing:
  rms(total) = 0.35950E-01    rms(broyden)= 0.35949E-01
  rms(prec ) = 0.38207E-01
  weight for this iteration     100.00

 eigenvalues of (default mixing * dielectric matrix)
  average eigenvalue GAMMA=   0.8960
  2.8860  1.9951  1.2476  0.8713  0.8713  0.7522  0.6262  0.6262  0.1831  0.4520
  0.3448  0.3962  0.3962

 Free energy of the ion-electron system (eV)
  ---------------------------------------------------
  alpha Z        PSCENC =       819.70994165
  Ewald energy   TEWEN  =    282623.77790592
  -Hartree energ DENC   =   -341224.79853178
  -exchange      EXHF   =         0.00000000
  -V(xc)+E(xc)   XCENC  =      1722.77221078
  PAW double counting   =     57982.67800477   -60452.49160049
  entropy T*S    EENTRO =        -0.05233121
  eigenvalues    EBANDS =     -7601.27871786
  atomic energy  EATOM  =     66067.45489428
  ---------------------------------------------------
  free energy    TOTEN  =       -62.22822393 eV

  energy without entropy =      -62.17589272  energy(sigma->0) =      -62.20205832


--------------------------------------------------------------------------------------------------------




----------------------------------------- Iteration    1(  19)  ---------------------------------------


    POTLOK:  cpu time    0.09: real time    0.09
    SETDIJ:  cpu time    0.27: real time    0.27
     EDDAV:  cpu time    9.90: real time    9.92
       DOS:  cpu time    0.00: real time    0.00
    CHARGE:  cpu time    0.59: real time    0.59
    MIXING:  cpu time    0.00: real time    0.00
    --------------------------------------------
      LOOP:  cpu time   10.85: real time   10.94

 eigenvalue-minimisations  :  4920
 total energy-change (2. order) : 0.3814080E-03  (-0.7901704E-04)
 number of electron     275.9999423 magnetization 
 augmentation part      173.6476235 magnetization 

 DIPCOR: dipole corrections for dipol
 direction  3 min pos   208,
 dipolmoment           0.000000      0.000000      0.124699 electrons x Angstroem
 Tr[quadrupol]     -1353.089093

 energy correction for charged system         0.000000 eV
 dipol+quadrupol energy correction           -0.002460 eV
 added-field ion interaction        -13.071331 eV  (added to PSCEN)


 Broyden mixing:
  rms(total) = 0.24227E-01    rms(broyden)= 0.24226E-01
  rms(prec ) = 0.28631E-01
  weight for this iteration     100.00

 eigenvalues of (default mixing * dielectric matrix)
  average eigenvalue GAMMA=   0.9149
  2.7477  1.8627  1.8627  0.9621  0.9621  0.7378  0.7378  0.1831  0.5926  0.5926
  0.3423  0.3986  0.3986  0.4286

 Free energy of the ion-electron system (eV)
  ---------------------------------------------------
  alpha Z        PSCENC =       818.76219852
  Ewald energy   TEWEN  =    282623.77790592
  -Hartree energ DENC   =   -341233.69985735
  -exchange      EXHF   =         0.00000000
  -V(xc)+E(xc)   XCENC  =      1722.79987048
  PAW double counting   =     57998.38363831   -60468.11263785
  entropy T*S    EENTRO =        -0.05257144
  eigenvalues    EBANDS =     -7591.54128340
  atomic energy  EATOM  =     66067.45489428
  ---------------------------------------------------
  free energy    TOTEN  =       -62.22784252 eV

  energy without entropy =      -62.17527108  energy(sigma->0) =      -62.20155680


--------------------------------------------------------------------------------------------------------




----------------------------------------- Iteration    1(  20)  ---------------------------------------


    POTLOK:  cpu time    0.08: real time    0.08
    SETDIJ:  cpu time    0.27: real time    0.27
     EDDAV:  cpu time   10.81: real time   10.82
       DOS:  cpu time    0.00: real time    0.00
    CHARGE:  cpu time    0.58: real time    0.58
    MIXING:  cpu time    0.00: real time    0.00
    --------------------------------------------
      LOOP:  cpu time   11.75: real time   11.79

 eigenvalue-minimisations  :  5544
 total energy-change (2. order) :-0.3374757E-03  (-0.9400992E-04)
 number of electron     275.9999423 magnetization 
 augmentation part      173.6557773 magnetization 

 DIPCOR: dipole corrections for dipol
 direction  3 min pos   226,
 dipolmoment           0.000000      0.000000      0.114725 electrons x Angstroem
 Tr[quadrupol]     -1353.416834

 energy correction for charged system         0.000000 eV
 dipol+quadrupol energy correction           -0.002082 eV
 added-field ion interaction          1.102739 eV  (added to PSCEN)


 Broyden mixing:
  rms(total) = 0.23575E-01    rms(broyden)= 0.23574E-01
  rms(prec ) = 0.31612E-01
  weight for this iteration     100.00

 eigenvalues of (default mixing * dielectric matrix)
  average eigenvalue GAMMA=   0.9096
  2.3699  2.3699  1.8732  0.9505  0.9505  0.7755  0.7755  0.7537  0.1831  0.5546
  0.5546  0.3442  0.3956  0.3956  0.3975

 Free energy of the ion-electron system (eV)
  ---------------------------------------------------
  alpha Z        PSCENC =       832.93664638
  Ewald energy   TEWEN  =    282623.77790592
  -Hartree energ DENC   =   -341234.29174945
  -exchange      EXHF   =         0.00000000
  -V(xc)+E(xc)   XCENC  =      1722.78483456
  PAW double counting   =     57989.70823793   -60459.38017956
  entropy T*S    EENTRO =        -0.05250009
  eigenvalues    EBANDS =     -7605.16626998
  atomic energy  EATOM  =     66067.45489428
  ---------------------------------------------------
  free energy    TOTEN  =       -62.22818000 eV

  energy without entropy =      -62.17567991  energy(sigma->0) =      -62.20192995


--------------------------------------------------------------------------------------------------------




----------------------------------------- Iteration    1(  21)  ---------------------------------------


    POTLOK:  cpu time    0.08: real time    0.09
    SETDIJ:  cpu time    0.27: real time    0.27
     EDDAV:  cpu time    9.10: real time    9.11
       DOS:  cpu time    0.00: real time    0.00
    CHARGE:  cpu time    0.58: real time    0.58
    MIXING:  cpu time    0.00: real time    0.00
    --------------------------------------------
      LOOP:  cpu time   10.04: real time   10.10

 eigenvalue-minimisations  :  4400
 total energy-change (2. order) : 0.8190096E-03  (-0.4532342E-03)
 number of electron     275.9999423 magnetization 
 augmentation part      173.6620465 magnetization 

 DIPCOR: dipole corrections for dipol
 direction  3 min pos   217,
 dipolmoment           0.000000      0.000000      0.123378 electrons x Angstroem
 Tr[quadrupol]     -1353.288371

 energy correction for charged system         0.000000 eV
 dipol+quadrupol energy correction           -0.002408 eV
 added-field ion interaction         -5.873478 eV  (added to PSCEN)


 Broyden mixing:
  rms(total) = 0.64633E-02    rms(broyden)= 0.64429E-02
  rms(prec ) = 0.68380E-02
  weight for this iteration     100.00

 eigenvalues of (default mixing * dielectric matrix)
  average eigenvalue GAMMA=   0.9205
  2.4572  2.4572  1.8826  1.3389  0.8070  0.8070  0.6275  0.6275  0.6962  0.6548
  0.6548  0.1831  0.3438  0.3955  0.3955  0.3990

 Free energy of the ion-electron system (eV)
  ---------------------------------------------------
  alpha Z        PSCENC =       825.96010375
  Ewald energy   TEWEN  =    282623.77790592
  -Hartree energ DENC   =   -341236.01687830
  -exchange      EXHF   =         0.00000000
  -V(xc)+E(xc)   XCENC  =      1722.78532109
  PAW double counting   =     57985.49269725   -60455.07523715
  entropy T*S    EENTRO =        -0.05173875
  eigenvalues    EBANDS =     -7596.55442908
  atomic energy  EATOM  =     66067.45489428
  ---------------------------------------------------
  free energy    TOTEN  =       -62.22736099 eV

  energy without entropy =      -62.17562224  energy(sigma->0) =      -62.20149161


--------------------------------------------------------------------------------------------------------




----------------------------------------- Iteration    1(  22)  ---------------------------------------


    POTLOK:  cpu time    0.09: real time    0.09
    SETDIJ:  cpu time    0.27: real time    0.27
     EDDAV:  cpu time    8.40: real time    8.41
       DOS:  cpu time    0.00: real time    0.00
    CHARGE:  cpu time    0.59: real time    0.59
    MIXING:  cpu time    0.00: real time    0.00
    --------------------------------------------
      LOOP:  cpu time    9.35: real time    9.38

 eigenvalue-minimisations  :  3888
 total energy-change (2. order) :-0.1247778E-03  (-0.2725292E-04)
 number of electron     275.9999423 magnetization 
 augmentation part      173.6644433 magnetization 

 DIPCOR: dipole corrections for dipol
 direction  3 min pos   213,
 dipolmoment           0.000000      0.000000      0.124558 electrons x Angstroem
 Tr[quadrupol]     -1353.240550

 energy correction for charged system         0.000000 eV
 dipol+quadrupol energy correction           -0.002455 eV
 added-field ion interaction         -9.097174 eV  (added to PSCEN)


 Broyden mixing:
  rms(total) = 0.50041E-02    rms(broyden)= 0.50027E-02
  rms(prec ) = 0.53460E-02
  weight for this iteration     100.00

 eigenvalues of (default mixing * dielectric matrix)
  average eigenvalue GAMMA=   0.9089
  2.3475  2.3475  2.1938  1.4798  0.8566  0.8566  0.7147  0.7147  0.6870  0.6060
  0.6060  0.1831  0.4139  0.3891  0.3891  0.3431  0.3227

 Free energy of the ion-electron system (eV)
  ---------------------------------------------------
  alpha Z        PSCENC =       822.73636131
  Ewald energy   TEWEN  =    282623.77790592
  -Hartree energ DENC   =   -341237.51676444
  -exchange      EXHF   =         0.00000000
  -V(xc)+E(xc)   XCENC  =      1722.78537968
  PAW double counting   =     57983.09530459   -60452.66202289
  entropy T*S    EENTRO =        -0.05172504
  eigenvalues    EBANDS =     -7591.84681919
  atomic energy  EATOM  =     66067.45489428
  ---------------------------------------------------
  free energy    TOTEN  =       -62.22748577 eV

  energy without entropy =      -62.17576072  energy(sigma->0) =      -62.20162325


--------------------------------------------------------------------------------------------------------




----------------------------------------- Iteration    1(  23)  ---------------------------------------


    POTLOK:  cpu time    0.08: real time    0.08
    SETDIJ:  cpu time    0.27: real time    0.27
     EDDAV:  cpu time    7.57: real time    7.58
       DOS:  cpu time    0.00: real time    0.00
    CHARGE:  cpu time    0.59: real time    0.59
    MIXING:  cpu time    0.00: real time    0.00
    --------------------------------------------
      LOOP:  cpu time    8.51: real time    8.56

 eigenvalue-minimisations  :  3312
 total energy-change (2. order) :-0.7682832E-04  (-0.3811007E-05)
 number of electron     275.9999423 magnetization 
 augmentation part      173.6634418 magnetization 

 DIPCOR: dipole corrections for dipol
 direction  3 min pos   211,
 dipolmoment           0.000000      0.000000      0.124716 electrons x Angstroem
 Tr[quadrupol]     -1353.225243

 energy correction for charged system         0.000000 eV
 dipol+quadrupol energy correction           -0.002461 eV
 added-field ion interaction        -10.694510 eV  (added to PSCEN)


 Broyden mixing:
  rms(total) = 0.50032E-02    rms(broyden)= 0.50031E-02
  rms(prec ) = 0.54803E-02
  weight for this iteration     100.00

 eigenvalues of (default mixing * dielectric matrix)
  average eigenvalue GAMMA=   0.9613
  2.6777  2.6777  1.8145  1.3391  1.3391  1.1682  0.7830  0.7830  0.7418  0.7418
  0.5803  0.5803  0.1831  0.3937  0.3937  0.4034  0.3442  0.3589

 Free energy of the ion-electron system (eV)
  ---------------------------------------------------
  alpha Z        PSCENC =       821.13901965
  Ewald energy   TEWEN  =    282623.77790592
  -Hartree energ DENC   =   -341238.82426969
  -exchange      EXHF   =         0.00000000
  -V(xc)+E(xc)   XCENC  =      1722.78879253
  PAW double counting   =     57982.88802015   -60452.47119116
  entropy T*S    EENTRO =        -0.05178500
  eigenvalues    EBANDS =     -7588.92894928
  atomic energy  EATOM  =     66067.45489428
  ---------------------------------------------------
  free energy    TOTEN  =       -62.22756260 eV

  energy without entropy =      -62.17577759  energy(sigma->0) =      -62.20167009


--------------------------------------------------------------------------------------------------------




----------------------------------------- Iteration    1(  24)  ---------------------------------------


    POTLOK:  cpu time    0.08: real time    0.08
    SETDIJ:  cpu time    0.27: real time    0.27
     EDDAV:  cpu time    8.37: real time    8.38
       DOS:  cpu time    0.00: real time    0.00
    CHARGE:  cpu time    0.58: real time    0.58
    MIXING:  cpu time    0.00: real time    0.00
    --------------------------------------------
      LOOP:  cpu time    9.31: real time    9.39

 eigenvalue-minimisations  :  3864
 total energy-change (2. order) :-0.1815546E-03  (-0.6982663E-05)
 number of electron     275.9999423 magnetization 
 augmentation part      173.6599843 magnetization 

 DIPCOR: dipole corrections for dipol
 direction  3 min pos   211,
 dipolmoment           0.000000      0.000000      0.123922 electrons x Angstroem
 Tr[quadrupol]     -1353.263258

 energy correction for charged system         0.000000 eV
 dipol+quadrupol energy correction           -0.002430 eV
 added-field ion interaction        -10.626428 eV  (added to PSCEN)


 Broyden mixing:
  rms(total) = 0.37334E-02    rms(broyden)= 0.37332E-02
  rms(prec ) = 0.43556E-02
  weight for this iteration     100.00

 eigenvalues of (default mixing * dielectric matrix)
  average eigenvalue GAMMA=   0.9604
  2.5601  2.5601  2.1846  1.5921  1.5921  0.7848  0.7848  0.7553  0.7553  0.7377
  0.6038  0.6038  0.6538  0.1831  0.3910  0.3910  0.4042  0.3437  0.3663

 Free energy of the ion-electron system (eV)
  ---------------------------------------------------
  alpha Z        PSCENC =       821.20713243
  Ewald energy   TEWEN  =    282623.77790592
  -Hartree energ DENC   =   -341241.49500988
  -exchange      EXHF   =         0.00000000
  -V(xc)+E(xc)   XCENC  =      1722.80169812
[...]
     29     -71.0988      2.00000
     30     -71.0871      2.00000
     31     -71.0445      2.00000
     32     -71.0235      2.00000
     33     -71.0153      2.00000
     34     -70.9485      2.00000
     35     -70.9368      2.00000
     36     -70.9198      2.00000
     37     -70.9032      2.00000
     38     -70.8892      2.00000
     39     -70.8795      2.00000
     40     -70.8726      2.00000
     41     -70.8587      2.00000
     42     -70.8463      2.00000
     43     -70.8188      2.00000
     44     -70.8163      2.00000
     45     -70.8137      2.00000
     46     -70.7516      2.00000
     47     -70.7505      2.00000
     48     -70.6546      2.00000
     49     -12.2159      2.00000
     50      -8.7911      2.00000
     51      -7.7706      2.00000
     52      -7.5454      2.00000
     53      -6.8841      2.00000
     54      -6.7311      2.00000
     55      -6.3193      2.00000
     56      -6.1496      2.00000
     57      -5.9084      2.00000
     58      -5.7790      2.00000
     59      -5.6800      2.00000
     60      -5.6114      2.00000
     61      -5.5391      2.00000
     62      -5.4687      2.00000
     63      -5.4068      2.00000
     64      -5.3523      2.00000
     65      -5.3190      2.00000
     66      -5.2394      2.00000
     67      -5.2045      2.00000
     68      -5.1636      2.00000
     69      -5.0654      2.00000
     70      -5.0201      2.00000
     71      -4.9791      2.00000
     72      -4.9183      2.00000
     73      -4.9037      2.00000
     74      -4.8559      2.00000
     75      -4.8134      2.00000
     76      -4.7717      2.00000
     77      -4.7307      2.00000
     78      -4.7097      2.00000
     79      -4.6638      2.00000
     80      -4.6146      2.00000
     81      -4.5401      2.00000
     82      -4.5271      2.00000
     83      -4.4912      2.00000
     84      -4.4433      2.00000
     85      -4.4118      2.00000
     86      -4.3748      2.00000
     87      -4.3139      2.00000
     88      -4.2521      2.00000
     89      -4.2337      2.00000
     90      -4.1851      2.00000
     91      -4.1355      2.00000
     92      -4.0786      2.00000
     93      -4.0550      2.00000
     94      -4.0335      2.00000
     95      -4.0058      2.00000
     96      -3.9645      2.00000
     97      -3.9574      2.00000
     98      -3.8783      2.00000
     99      -3.8539      2.00000
    100      -3.8217      2.00000
    101      -3.8031      2.00000
    102      -3.7638      2.00000
    103      -3.7244      2.00000
    104      -3.6700      2.00000
    105      -3.6544      2.00000
    106      -3.5725      2.00000
    107      -3.5280      2.00000
    108      -3.5186      2.00000
    109      -3.4973      2.00000
    110      -3.4584      2.00000
    111      -3.4222      2.00000
    112      -3.3758      2.00000
    113      -3.3167      2.00000
    114      -3.2775      2.00000
    115      -3.2593      2.00000
    116      -3.2147      2.00000
    117      -3.2004      2.00000
    118      -3.1717      2.00000
    119      -3.1141      2.00000
    120      -3.0909      2.00000
    121      -3.0452      2.00000
    122      -3.0279      2.00000
    123      -2.9412      2.00000
    124      -2.9185      2.00000
    125      -2.8857      2.00000
    126      -2.8445      2.00000
    127      -2.8041      2.00000
    128      -2.7925      2.00000
    129      -2.7731      2.00000
    130      -2.7497      2.00000
    131      -2.7202      2.00000
    132      -2.6949      2.00000
    133      -2.6738      2.00000
    134      -2.4010      2.00000
    135      -2.2734      2.00000
    136      -2.0855      2.00000
    137      -1.8071      2.00000
    138      -1.3246      1.99996
    139      -0.8834      0.03381
    140      -0.3181      0.00000
    141       0.1781      0.00000
    142       0.5642      0.00000
    143       0.8439      0.00000
    144       1.1688      0.00000
    145       1.8741      0.00000
    146       2.1431      0.00000
    147       2.5875      0.00000
    148       2.9968      0.00000
    149       3.4015      0.00000
    150       4.2522      0.00000
    151       4.6947      0.00000
    152       4.7290      0.00000
    153       5.2123      0.00000
    154       5.3957      0.00000
    155       5.7755      0.00000
    156       5.9256      0.00000
    157       6.0538      0.00000
    158       6.2570      0.00000
    159       6.4391      0.00000
    160       6.6881      0.00000
    161       6.9156      0.00000
    162       7.1325      0.00000
    163       7.3323      0.00000
    164       7.3827      0.00000
    165       7.5523      0.00000
    166       7.6040      0.00000
    167       7.7796      0.00000
    168       7.8672      0.00000


--------------------------------------------------------------------------------------------------------


 soft charge-density along one line, spin component           1
         0         1         2         3         4         5         6         7         8         9
 total charge-density along one line
 
 pseudopotential strength for first ion, spin component:           1
-73.038  -0.000   0.000  10.827   0.000  -0.000  -0.000   0.039
 -0.000 -72.977   0.000   0.000  10.801  -0.000  -0.000  -0.000
  0.000   0.000 -73.038  -0.000  -0.000  10.827  -0.002  -0.000
 10.827   0.000  -0.000   5.358  -0.000  -0.000   0.000  -0.010
  0.000  10.801  -0.000  -0.000   5.361   0.000   0.000  -0.000
 -0.000  -0.000  10.827  -0.000   0.000   5.358   0.000   0.000
 -0.000  -0.000  -0.002   0.000   0.000   0.000 -11.854   0.000
  0.039  -0.000  -0.000  -0.010  -0.000   0.000   0.000 -11.812
 -0.000   0.036   0.000   0.000  -0.010  -0.000   0.000  -0.000
 -0.000   0.000   0.039   0.000   0.000  -0.010  -0.003   0.000
 -0.002   0.000  -0.000   0.000  -0.000   0.000   0.000  -0.003
 -0.000  -0.000  -0.002   0.000   0.000   0.000 -12.329   0.000
  0.038  -0.000  -0.000  -0.010  -0.000   0.000   0.000 -12.289
 -0.000   0.035   0.000   0.000  -0.010  -0.000   0.000  -0.000
 -0.000   0.000   0.038   0.000   0.000  -0.010  -0.003   0.000
 -0.002   0.000  -0.000   0.000  -0.000   0.000   0.000  -0.003
 -0.000  -0.009   0.000   0.000   0.002  -0.000  -0.000   0.000
 -0.000  -0.019   0.000   0.000   0.003  -0.000  -0.000   0.000
 total augmentation occupancy for first ion, spin component:           1
  1.997  -0.000   0.000  -0.017  -0.000   0.000   0.000  -0.008   0.000  -0.000  -0.001  -0.000   0.008  -0.000   0.000   0.001
 -0.000   1.997   0.000   0.000  -0.016  -0.000  -0.000  -0.000  -0.010   0.000   0.000   0.000   0.000   0.009  -0.000  -0.000
  0.000   0.000   1.997   0.000   0.000  -0.017  -0.001  -0.000  -0.000  -0.008   0.000   0.001   0.000   0.000   0.008  -0.000
 -0.017   0.000   0.000   0.116  -0.000   0.000   0.000  -0.113   0.000   0.000  -0.008  -0.000   0.103  -0.000  -0.000   0.012
 -0.000  -0.016   0.000  -0.000   0.067   0.000   0.000   0.000  -0.125  -0.000  -0.000  -0.000  -0.000   0.142   0.000   0.000
  0.000  -0.000  -0.017   0.000   0.000   0.116  -0.008   0.000  -0.000  -0.113   0.000   0.013  -0.000   0.000   0.103  -0.000
  0.000  -0.000  -0.001   0.000   0.000  -0.008   3.642  -0.000  -0.000  -0.116   0.000  -1.404   0.000   0.000   0.052  -0.000
 -0.008  -0.000  -0.000  -0.113   0.000   0.000  -0.000   3.667  -0.000   0.000  -0.116   0.000  -1.254   0.000  -0.000   0.053
  0.000  -0.010  -0.000   0.000  -0.125  -0.000  -0.000  -0.000   3.851   0.001   0.000   0.000   0.000  -1.475  -0.000  -0.000
 -0.000   0.000  -0.008   0.000  -0.000  -0.113  -0.116   0.000   0.001   3.667  -0.000   0.053  -0.000  -0.000  -1.254   0.000
 -0.001   0.000   0.000  -0.008  -0.000   0.000   0.000  -0.116   0.000  -0.000   3.642  -0.000   0.053  -0.000   0.000  -1.404
 -0.000   0.000   0.001  -0.000  -0.000   0.013  -1.404   0.000   0.000   0.053  -0.000   1.084  -0.000  -0.000  -0.004   0.000
  0.008   0.000   0.000   0.103  -0.000  -0.000   0.000  -1.254   0.000  -0.000   0.053  -0.000   0.802  -0.000   0.000  -0.004
 -0.000   0.009   0.000  -0.000   0.142   0.000   0.000   0.000  -1.475  -0.000  -0.000  -0.000  -0.000   1.054   0.000   0.000
  0.000  -0.000   0.008  -0.000   0.000   0.103   0.052  -0.000  -0.000  -1.254   0.000  -0.004   0.000   0.000   0.802  -0.000
  0.001  -0.000  -0.000   0.012   0.000  -0.000  -0.000   0.053  -0.000   0.000  -1.404   0.000  -0.004   0.000  -0.000   1.084
 -0.000   0.031   0.000  -0.000   0.068   0.000   0.000   0.000   0.481  -0.000  -0.000  -0.000  -0.000  -0.376   0.000   0.000
  0.000  -0.015  -0.000  -0.000  -0.005   0.000   0.000   0.000  -0.041  -0.000  -0.000  -0.000  -0.000   0.015   0.000   0.000


------------------------ aborting loop because EDIFF is reached ----------------------------------------


 


 total charge     
 
# of ion     s       p       d       tot
----------------------------------------
  1        0.312   6.163   8.869  15.344
  2        0.312   6.160   8.876  15.347
  3        0.312   6.160   8.871  15.344
  4        0.311   6.159   8.879  15.349
  5        0.303   6.207   8.870  15.380
  6        0.301   6.209   8.862  15.373
  7        0.302   6.208   8.866  15.376
  8        0.298   6.208   8.867  15.372
  9        0.296   6.203   8.875  15.374
 10        0.303   6.204   8.863  15.370
 11        0.304   6.203   8.868  15.375
 12        0.303   6.206   8.858  15.367
 13        0.271   6.150   8.910  15.331
 14        0.342   6.243   8.811  15.396
 15        0.339   6.241   8.799  15.380
 16        0.343   6.242   8.824  15.409
 17        0.958   1.296   0.000   2.254
------------------------------------------------
tot        5.909 100.462 141.768 248.138
 
    CHARGE:  cpu time    0.59: real time    0.59
    FORLOC:  cpu time    0.01: real time    0.01
    FORNL :  cpu time    2.94: real time    2.94
    STRESS:  cpu time    2.37: real time    2.37
    FORCOR:  cpu time    0.09: real time    0.09
    FORHAR:  cpu time    0.03: real time    0.03
    MIXING:  cpu time    0.00: real time    0.00
    OFIELD:  cpu time    0.00: real time    0.00

 ---------------------------------------------------------------------------------------------

         DFTD3 V3.0 Rev 1        
 Edisp (eV)   -6.06779

 E6    (eV) :    -2.3871
 E8    (eV) :    -3.6807
 % E8        : 60.66
    FORVDW:  cpu time    0.10: real time    0.10

  FORCE on cell =-STRESS in cart. coord.  units (eV):
  Direction    XX          YY          ZZ          XY          YZ          ZX
  --------------------------------------------------------------------------------------
  Alpha Z   831.83599   831.83599   831.83599
  Ewald  312403.06783312404.68103************     1.39708    -0.87918     1.52272
  Hartree329234.73890329236.09611************     1.17536    -0.48391     0.83814
  E(xc)   -2152.46214 -2152.46138 -2154.96066     0.00041    -0.00023     0.00042
  Local  ************************653363.58355    -2.61748     1.33514    -2.31246
  n-local -1401.00954 -1399.66954 -1404.60261    -0.38235    -0.00545     0.00738
  augment  3002.83685  3002.87289  3011.46471     0.01826     0.00622    -0.01085
  Kinetic  3414.36776  3412.49630  3426.13492     0.56455     0.20689     0.11523
  Fock        0.00000     0.00000     0.00000     0.00000     0.00000     0.00000
  vdW        -7.74499    -7.74901    -4.41889    -0.00348    -0.00024     0.00041
  -------------------------------------------------------------------------------------
  Total      -1.56554    -1.57534    -1.77899    -0.00848    -0.02427     0.04204
  in kB      -4.38597    -4.41341    -4.98395    -0.02376    -0.06800     0.11778
  external pressure =       -4.59 kB  Pullay stress =        0.00 kB


 VOLUME and BASIS-vectors are now :
 -----------------------------------------------------------------------------
  energy-cutoff  :      400.00
  volume of cell :      571.89
      direct lattice vectors                 reciprocal lattice vectors
     5.019694805  0.000000000  0.000000000     0.199215299 -0.115017006  0.000000000
     2.509847403  4.347183220  0.000000000     0.000000000  0.230034013  0.000000000
     0.000000000  0.000000000 26.207422256     0.000000000  0.000000000  0.038157129

  length of vectors
     5.019694805  5.019694805 26.207422256     0.230034013  0.230034013  0.038157129


 FORCES acting on ions
    electron-ion (+dipol)            ewald-force                    non-local-force                 convergence-correction
 -----------------------------------------------------------------------------------------------
   -.477E-01 0.275E-01 0.994E+04   0.533E-01 -.308E-01 -.993E+04   -.681E-02 0.393E-02 -.295E+01   0.444E-03 -.256E-03 -.158E-01
   0.745E+00 -.430E+00 0.994E+04   -.584E+00 0.337E+00 -.993E+04   -.169E+00 0.973E-01 -.235E+01   -.953E-04 0.550E-04 -.158E-01
   0.580E-01 0.897E+00 0.994E+04   -.530E-01 -.705E+00 -.993E+04   -.494E-02 -.202E+00 -.236E+01   -.516E-03 -.336E-03 -.152E-01
   -.748E+00 -.499E+00 0.994E+04   0.584E+00 0.398E+00 -.993E+04   0.173E+00 0.105E+00 -.236E+01   0.330E-04 0.615E-03 -.152E-01
   0.129E+02 0.789E+01 0.343E+04   -.127E+02 -.775E+01 -.343E+04   -.300E+00 -.176E+00 -.123E+01   -.149E-02 0.143E-02 -.149E-01
   -.380E+00 -.151E+02 0.343E+04   0.381E+00 0.148E+02 -.343E+04   0.238E-02 0.347E+00 -.123E+01   -.198E-02 0.575E-03 -.149E-01
   -.128E+02 0.738E+01 0.343E+04   0.125E+02 -.723E+01 -.343E+04   0.315E+00 -.182E+00 -.124E+01   0.166E-02 -.957E-03 -.318E-01
   0.373E+00 -.215E+00 0.342E+04   -.365E+00 0.211E+00 -.342E+04   -.127E-01 0.734E-02 -.671E-01   0.206E-02 -.119E-02 -.193E-01
   0.128E+01 -.741E+00 -.303E+04   -.128E+01 0.738E+00 0.302E+04   -.469E-01 0.271E-01 0.256E+01   0.360E-01 -.208E-01 -.249E-01
   0.263E+02 -.152E+02 -.312E+04   -.263E+02 0.152E+02 0.312E+04   -.993E-01 0.573E-01 0.987E+00   0.230E-01 -.133E-01 0.867E-02
   -.851E+00 0.295E+02 -.311E+04   0.825E+00 -.294E+02 0.311E+04   0.546E-01 -.687E-01 0.983E+00   -.261E-01 -.146E-01 -.450E-02
   -.259E+02 -.140E+02 -.311E+04   0.258E+02 0.140E+02 0.311E+04   0.868E-01 -.130E-01 0.983E+00   -.438E-03 0.300E-01 -.450E-02
   0.687E+00 -.397E+00 -.972E+04   -.707E+00 0.408E+00 0.971E+04   -.562E-03 0.325E-03 0.488E+01   0.131E-01 -.753E-02 0.583E-01
   0.307E+02 -.177E+02 -.948E+04   -.311E+02 0.180E+02 0.948E+04   0.521E+00 -.301E+00 -.219E+01   -.623E-01 0.360E-01 -.295E-01
   -.714E+00 0.373E+02 -.950E+04   0.728E+00 -.378E+02 0.950E+04   -.109E-01 0.396E+00 -.220E+01   0.185E-02 0.846E-01 0.602E-01
   -.327E+02 -.180E+02 -.950E+04   0.331E+02 0.182E+02 0.950E+04   -.348E+00 -.188E+00 -.220E+01   -.723E-01 -.439E-01 0.602E-01
   0.992E+00 -.573E+00 -.290E+04   -.986E+00 0.569E+00 0.291E+04   0.132E-01 -.761E-02 -.785E+01   -.823E-02 0.475E-02 0.658E-02
 -----------------------------------------------------------------------------------------------
   -.770E-01 0.428E-01 0.178E+02   -.270E-12 -.699E-14 0.100E-10   0.167E+00 -.965E-01 -.178E+02   -.954E-01 0.551E-01 -.125E-01
 
 
 POSITION                                       TOTAL-FORCE (eV/Angst)
 -----------------------------------------------------------------------------------
      0.00000      0.00000      0.00000        -0.000502      0.000290     -0.168952
      1.25492      2.17359      0.00000        -0.007533      0.004349     -0.145122
      2.50985      0.00000      0.00000        -0.000215     -0.009876     -0.145544
      3.76477      2.17359      0.00000         0.008445      0.005125     -0.145544
      1.25492      0.72453      2.04928        -0.055679     -0.034040      0.166064
      2.50985      2.89812      2.04928         0.001640      0.065239      0.166064
      3.76477      0.72453      2.04928         0.056118     -0.032400      0.160074
      5.01969      2.89812      2.04928        -0.002645      0.001527      0.160022
      2.50982      1.44908      4.07763        -0.004514      0.002606      0.003743
      3.76532      3.62233      4.12610        -0.006074      0.003507     -0.006804
      5.01787      1.44933      4.12355         0.002733      0.002335     -0.002227
      6.27347      3.62410      4.12355        -0.000656     -0.003535     -0.002227
     -0.00352      0.00203      6.26743        -0.005859      0.003383     -0.021329
      6.23228      2.19804      6.20928         0.010436     -0.006025      0.002037
      5.01546      4.30964      6.21869         0.005439      0.017214     -0.001481
      3.79517      2.19603      6.21869        -0.012188     -0.013317     -0.001481
      2.49780      1.45602      7.29697         0.011052     -0.006381     -0.017294
 -----------------------------------------------------------------------------------
    total drift:                               -0.005265      0.001386     -0.008463


--------------------------------------------------------------------------------------------------------



  FREE ENERGIE OF THE ION-ELECTRON SYSTEM (eV)
  ---------------------------------------------------
  free  energy   TOTEN  =       -68.42599381 eV

  energy  without entropy=      -68.38024622  energy(sigma->0) =      -68.40312001
 
 d Force = 0.1211153E-03[ 0.304E-04, 0.212E-03]  d Energy = 0.1060152E-03 0.151E-04
 d Force = 0.2056518E+02[ 0.206E+02, 0.206E+02]  d Ewald  = 0.2056518E+02-0.116E-05


--------------------------------------------------------------------------------------------------------


    POTLOK:  cpu time    0.36: real time    0.36


--------------------------------------------------------------------------------------------------------


 stress matrix after NEB project (eV)
     -1.56554     -0.00848      0.04204
     -0.00848     -1.57534     -0.02427
      0.04204     -0.02427     -1.77899
  FORCES: max atom, RMS     0.022376    0.010684
  FORCE total and by dimension    0.044053    0.021329
  Stress total and by dimension    2.846448    1.778988


--------------------------------------------------------------------------------------------------------


  
 reached required accuracy - stopping structural energy minimisation
     LOOP+:  cpu time   66.89: real time   67.78
    4ORBIT:  cpu time    0.00: real time    0.00
 


 total charge     
 
# of ion     s       p       d       tot
----------------------------------------
  1        0.312   6.163   8.869  15.344
  2        0.312   6.160   8.876  15.347
  3        0.312   6.160   8.871  15.344
  4        0.311   6.159   8.879  15.349
  5        0.303   6.207   8.870  15.380
  6        0.301   6.209   8.862  15.373
  7        0.302   6.208   8.866  15.376
  8        0.298   6.208   8.867  15.372
  9        0.296   6.203   8.875  15.374
 10        0.303   6.204   8.863  15.370
 11        0.304   6.203   8.868  15.375
 12        0.303   6.206   8.858  15.367
 13        0.271   6.150   8.910  15.331
 14        0.342   6.243   8.811  15.396
 15        0.339   6.241   8.799  15.380
 16        0.343   6.242   8.824  15.409
 17        0.958   1.296   0.000   2.254
------------------------------------------------
tot        5.909 100.462 141.768 248.138
 

 total amount of memory used by VASP on root node    56266. kBytes
========================================================================

   base      :      30000. kBytes
   nonl-proj :       5268. kBytes
   fftplans  :       3436. kBytes
   grid      :       5670. kBytes
   one-center:         46. kBytes
   wavefun   :      11846. kBytes
 
  
  
 General timing and accounting informations for this job:
 ========================================================
  
                  Total CPU time used (sec):     1938.870
                            User time (sec):     1932.272
                          System time (sec):        6.598
                         Elapsed time (sec):     1957.004
  
                   Maximum memory used (kb):      115736.
                   Average memory used (kb):           0.
  
                          Minor page faults:       243990
                          Major page faults:            0
                 Voluntary context switches:        52040
