PROCAR new format
# of k-points:   13         # of bands: 168         # of ions:  17

 k-point    1 :    0.00000000 0.00000000 0.00000000     weight = 0.02777778

band   1 # energy  -71.91890490 # occ.  2.00000000
 
ion      s      p      d    tot
  1  0.000  0.000  0.000  0.000
  2  0.000  0.000  0.000  0.000
  3  0.000  0.000  0.000  0.000
  4  0.000  0.000  0.000  0.000
  5  0.000  0.000  0.000  0.000
  6  0.000  0.000  0.000  0.000
  7  0.000  0.000  0.000  0.000
  8  0.000  0.000  0.000  0.000
  9  0.000  0.000  0.000  0.000
 10  0.000  0.000  0.000  0.000
 11  0.000  0.000  0.000  0.000
 12  0.000  0.000  0.000  0.000
 13  0.000  0.000  0.000  0.000
 14  0.000  0.458  0.000  0.458
 15  0.000  0.268  0.000  0.268
 16  0.000  0.268  0.000  0.268
 17  0.000  0.000  0.000  0.000
tot  0.000  0.995  0.000  0.995
 
band   2 # energy  -71.86004746 # occ.  2.00000000
 
ion      s      p      d    tot
  1  0.000  0.000  0.000  0.000
  2  0.000  0.000  0.000  0.000
  3  0.000  0.000  0.000  0.000
  4  0.000  0.000  0.000  0.000
  5  0.000  0.000  0.000  0.000
  6  0.000  0.000  0.000  0.000
  7  0.000  0.000  0.000  0.000
  8  0.000  0.000  0.000  0.000
  9  0.000  0.000  0.000  0.000
 10  0.000  0.000  0.000  0.000
 11  0.000  0.000  0.000  0.000
 12  0.000  0.000  0.000  0.000
 13  0.000  0.000  0.000  0.000
 14  0.000  0.535  0.000  0.535
 15  0.000  0.231  0.000  0.231
 16  0.000  0.231  0.000  0.231
 17  0.000  0.000  0.000  0.000
tot  0.000  0.997  0.000  0.997
 
band   3 # energy  -71.85058251 # occ.  2.00000000
 
ion      s      p      d    tot
  1  0.000  0.000  0.000  0.000
  2  0.000  0.000  0.000  0.000
  3  0.000  0.000  0.000  0.000
  4  0.000  0.000  0.000  0.000
  5  0.000  0.000  0.000  0.000
  6  0.000  0.000  0.000  0.000
  7  0.000  0.000  0.000  0.000
  8  0.000  0.000  0.000  0.000
  9  0.000  0.000  0.000  0.000
 10  0.000  0.000  0.000  0.000
 11  0.000  0.000  0.000  0.000
 12  0.000  0.000  0.000  0.000
 13  0.000  0.000  0.000  0.000
 14  0.000  0.004  0.000  0.004
 15  0.000  0.497  0.000  0.497
 16  0.000  0.496  0.000  0.496
 17  0.000  0.000  0.000  0.000
tot  0.000  0.997  0.000  0.997
 
band   4 # energy  -71.56907002 # occ.  2.00000000
 
ion      s      p      d    tot
  1  0.000  0.000  0.000  0.000
  2  0.000  0.000  0.000  0.000
  3  0.000  0.000  0.000  0.000
  4  0.000  0.000  0.000  0.000
  5  0.000  0.000  0.000  0.000
  6  0.000  0.000  0.000  0.000
  7  0.000  0.000  0.000  0.000
  8  0.000  0.000  0.000  0.000
  9  0.000  0.000  0.000  0.000
 10  0.000  0.000  0.000  0.000
 11  0.000  0.000  0.000  0.000
 12  0.000  0.000  0.000  0.000
 13  0.000  0.002  0.000  0.002
 14  0.000  0.757  0.000  0.757
 15  0.000  0.118  0.000  0.118
 16  0.000  0.118  0.000  0.118
 17  0.000  0.000  0.000  0.000
tot  0.000  0.996  0.000  0.996
 
band   5 # energy  -71.56098125 # occ.  2.00000000
 
ion      s      p      d    tot
  1  0.000  0.000  0.000  0.000
  2  0.000  0.000  0.000  0.000
  3  0.000  0.000  0.000  0.000
  4  0.000  0.000  0.000  0.000
  5  0.000  0.000  0.000  0.000
  6  0.000  0.000  0.000  0.000
  7  0.000  0.000  0.000  0.000
  8  0.000  0.000  0.000  0.000
  9  0.000  0.000  0.000  0.000
 10  0.000  0.000  0.000  0.000
 11  0.000  0.000  0.000  0.000
 12  0.000  0.000  0.000  0.000
 13  0.000  0.002  0.000  0.002
 14  0.000  0.047  0.000  0.047
 15  0.000  0.473  0.000  0.473
 16  0.000  0.473  0.000  0.473
 17  0.000  0.000  0.000  0.000
tot  0.000  0.996  0.000  0.996
 
band   6 # energy  -71.52684164 # occ.  2.00000000
 
ion      s      p      d    tot
  1  0.000  0.000  0.000  0.000
  2  0.000  0.000  0.000  0.000
  3  0.000  0.000  0.000  0.000
  4  0.000  0.000  0.000  0.000
  5  0.000  0.000  0.000  0.000
  6  0.000  0.000  0.000  0.000
  7  0.000  0.000  0.000  0.000
  8  0.000  0.000  0.000  0.000
  9  0.000  0.001  0.000  0.001
 10  0.000  0.000  0.000  0.000
 11  0.000  0.001  0.000  0.001
 12  0.000  0.001  0.000  0.001
 13  0.000  0.000  0.000  0.000
 14  0.000  0.501  0.000  0.501
 15  0.000  0.246  0.000  0.246
 16  0.000  0.246  0.000  0.246
 17  0.000  0.000  0.000  0.000
tot  0.000  0.996  0.000  0.996
 
band   7 # energy  -71.52571956 # occ.  2.00000000
 
ion      s      p      d    tot
  1  0.000  0.000  0.000  0.000
  2  0.000  0.000  0.000  0.000
  3  0.000  0.000  0.000  0.000
  4  0.000  0.000  0.000  0.000
  5  0.000  0.000  0.000  0.000
  6  0.000  0.000  0.000  0.000
  7  0.000  0.000  0.000  0.000
  8  0.000  0.000  0.000  0.000
  9  0.000  0.000  0.000  0.000
 10  0.000  0.000  0.000  0.000
 11  0.000  0.000  0.000  0.000
 12  0.000  0.000  0.000  0.000
 13  0.000  0.000  0.000  0.000
 14  0.000  0.217  0.000  0.217
 15  0.000  0.390  0.000  0.390
 16  0.000  0.390  0.000  0.390
 17  0.000  0.000  0.000  0.000
tot  0.000  0.997  0.000  0.997
 
band   8 # energy  -71.49251834 # occ.  2.00000000
 
ion      s      p      d    tot
  1  0.000  0.000  0.000  0.000
  2  0.000  0.000  0.000  0.000
  3  0.000  0.000  0.000  0.000
  4  0.000  0.000  0.000  0.000
  5  0.000  0.000  0.000  0.000
  6  0.000  0.000  0.000  0.000
  7  0.000  0.000  0.000  0.000
  8  0.000  0.000  0.000  0.000
  9  0.000  0.000  0.000  0.000
 10  0.000  0.001  0.000  0.001
 11  0.000  0.000  0.000  0.000
 12  0.000  0.000  0.000  0.000
 13  0.000  0.000  0.000  0.000
 14  0.000  0.450  0.000  0.450
 15  0.000  0.273  0.000  0.273
 16  0.000  0.273  0.000  0.273
 17  0.000  0.000  0.000  0.000
tot  0.000  0.997  0.000  0.997
 
band   9 # energy  -71.48531476 # occ.  2.00000000
 
ion      s      p      d    tot
  1  0.000  0.000  0.000  0.000
  2  0.000  0.000  0.000  0.000
  3  0.000  0.000  0.000  0.000
  4  0.000  0.000  0.000  0.000
  5  0.000  0.000  0.000  0.000
  6  0.000  0.000  0.000  0.000
  7  0.000  0.000  0.000  0.000
  8  0.000  0.000  0.000  0.000
  9  0.000  0.000  0.000  0.000
 10  0.000  0.000  0.000  0.000
 11  0.000  0.000  0.000  0.000
 12  0.000  0.000  0.000  0.000
 13  0.000  0.000  0.000  0.000
 14  0.000  0.017  0.000  0.017
 15  0.000  0.490  0.000  0.490
 16  0.000  0.489  0.000  0.489
 17  0.000  0.000  0.000  0.000
tot  0.000  0.997  0.000  0.997
 
band  10 # energy  -71.22747314 # occ.  2.00000000
 
ion      s      p      d    tot
  1  0.000  0.000  0.000  0.000
  2  0.000  0.000  0.000  0.000
  3  0.000  0.001  0.000  0.001
  4  0.000  0.001  0.000  0.001
  5  0.000  0.097  0.000  0.097
  6  0.000  0.110  0.000  0.110
  7  0.000  0.333  0.000  0.333
  8  0.000  0.432  0.000  0.432
  9  0.000  0.000  0.000  0.000
 10  0.000  0.001  0.000  0.001
 11  0.000  0.010  0.000  0.010
 12  0.000  0.011  0.000  0.011
 13  0.000  0.000  0.000  0.000
 14  0.000  0.000  0.000  0.000
 15  0.000  0.000  0.000  0.000
 16  0.000  0.000  0.000  0.000
 17  0.000  0.000  0.000  0.000
tot  0.000  0.995  0.000  0.995
 
band  11 # energy  -71.22726131 # occ.  2.00000000
 
ion      s      p      d    tot
  1  0.000  0.000  0.000  0.000
  2  0.000  0.001  0.000  0.001
  3  0.000  0.000  0.000  0.000
  4  0.000  0.000  0.000  0.000
  5  0.000  0.259  0.000  0.259
  6  0.000  0.246  0.000  0.246
  7  0.000  0.031  0.000  0.031
  8  0.000  0.435  0.000  0.435
  9  0.000  0.000  0.000  0.000
 10  0.000  0.013  0.000  0.013
 11  0.000  0.004  0.000  0.004
 12  0.000  0.004  0.000  0.004
 13  0.000  0.000  0.000  0.000
 14  0.000  0.000  0.000  0.000
 15  0.000  0.000  0.000  0.000
 16  0.000  0.000  0.000  0.000
 17  0.000  0.000  0.000  0.000
tot  0.000  0.995  0.000  0.995
 
band  12 # energy  -71.21553478 # occ.  2.00000000
 
ion      s      p      d    tot
  1  0.000  0.002  0.000  0.002
  2  0.000  0.000  0.000  0.000
  3  0.000  0.000  0.000  0.000
  4  0.000  0.000  0.000  0.000
  5  0.000  0.319  0.000  0.319
  6  0.000  0.319  0.000  0.319
  7  0.000  0.323  0.000  0.323
  8  0.000  0.000  0.000  0.000
  9  0.000  0.009  0.000  0.009
 10  0.000  0.007  0.000  0.007
 11  0.000  0.007  0.000  0.007
 12  0.000  0.007  0.000  0.007
 13  0.000  0.000  0.000  0.000
 14  0.000  0.000  0.000  0.000
 15  0.000  0.000  0.000  0.000
 16  0.000  0.000  0.000  0.000
 17  0.000  0.000  0.000  0.000
tot  0.000  0.995  0.000  0.995
 
band  13 # energy  -71.18923673 # occ.  2.00000000
 
ion      s      p      d    tot
  1  0.000  0.000  0.000  0.000
  2  0.000  0.001  0.000  0.001
  3  0.000  0.001  0.000  0.001
  4  0.000  0.001  0.000  0.001
  5  0.000  0.002  0.000  0.002
  6  0.000  0.002  0.000  0.002
  7  0.000  0.002  0.000  0.002
  8  0.000  0.366  0.000  0.366
  9  0.000  0.000  0.000  0.000
 10  0.000  0.202  0.000  0.202
 11  0.000  0.209  0.000  0.209
 12  0.000  0.209  0.000  0.209
 13  0.000  0.000  0.000  0.000
 14  0.000  0.000  0.000  0.000
 15  0.000  0.000  0.000  0.000
 16  0.000  0.000  0.000  0.000
 17  0.000  0.000  0.000  0.000
tot  0.000  0.995  0.000  0.995
 
band  14 # energy  -71.18502117 # occ.  2.00000000
 
ion      s      p      d    tot
  1  0.000  0.002  0.000  0.002
  2  0.000  0.001  0.000  0.001
  3  0.000  0.001  0.000  0.001
  4  0.000  0.001  0.000  0.001
  5  0.000  0.177  0.000  0.177
  6  0.000  0.177  0.000  0.177
  7  0.000  0.211  0.000  0.211
  8  0.000  0.134  0.000  0.134
  9  0.000  0.018  0.000  0.018
 10  0.000  0.084  0.000  0.084
 11  0.000  0.094  0.000  0.094
 12  0.000  0.094  0.000  0.094
 13  0.000  0.000  0.000  0.000
 14  0.000  0.000  0.000  0.000
 15  0.000  0.000  0.000  0.000
 16  0.000  0.000  0.000  0.000
 17  0.000  0.000  0.000  0.000
tot  0.000  0.996  0.000  0.996
 
band  15 # energy  -71.16751197 # occ.  2.00000000
 
ion      s      p      d    tot
  1  0.000  0.002  0.000  0.002
  2  0.000  0.001  0.000  0.001
  3  0.000  0.001  0.000  0.001
  4  0.000  0.001  0.000  0.001
  5  0.000  0.116  0.000  0.116
  6  0.000  0.115  0.000  0.115
  7  0.000  0.411  0.000  0.411
  8  0.000  0.001  0.000  0.001
  9  0.000  0.045  0.000  0.045
 10  0.000  0.062  0.000  0.062
 11  0.000  0.120  0.000  0.120
 12  0.000  0.120  0.000  0.120
 13  0.000  0.000  0.000  0.000
 14  0.000  0.000  0.000  0.000
 15  0.000  0.000  0.000  0.000
 16  0.000  0.000  0.000  0.000
 17  0.000  0.000  0.000  0.000
tot  0.000  0.996  0.000  0.996
 
band  16 # energy  -71.16657369 # occ.  2.00000000
 
ion      s      p      d    tot
  1  0.000  0.002  0.000  0.002
  2  0.000  0.002  0.000  0.002
  3  0.000  0.001  0.000  0.001
  4  0.000  0.001  0.000  0.001
  5  0.000  0.320  0.000  0.320
  6  0.000  0.321  0.000  0.321
  7  0.000  0.000  0.000  0.000
  8  0.000  0.000  0.000  0.000
  9  0.000  0.045  0.000  0.045
 10  0.000  0.144  0.000  0.144
 11  0.000  0.080  0.000  0.080
 12  0.000  0.080  0.000  0.080
 13  0.000  0.000  0.000  0.000
 14  0.000  0.000  0.000  0.000
 15  0.000  0.000  0.000  0.000
 16  0.000  0.000  0.000  0.000
 17  0.000  0.000  0.000  0.000
tot  0.000  0.996  0.000  0.996
 
band  17 # energy  -71.15249874 # occ.  2.00000000
 
ion      s      p      d    tot
  1  0.000  0.001  0.000  0.001
  2  0.000  0.002  0.000  0.002
  3  0.000  0.002  0.000  0.002
  4  0.000  0.002  0.000  0.002
  5  0.000  0.105  0.000  0.105
  6  0.000  0.105  0.000  0.105
  7  0.000  0.102  0.000  0.102
  8  0.000  0.419  0.000  0.419
  9  0.000  0.009  0.000  0.009
 10  0.000  0.077  0.000  0.077
 11  0.000  0.087  0.000  0.087
 12  0.000  0.087  0.000  0.087
 13  0.000  0.000  0.000  0.000
 14  0.000  0.000  0.000  0.000
 15  0.000  0.000  0.000  0.000
 16  0.000  0.000  0.000  0.000
 17  0.000  0.000  0.000  0.000
tot  0.000  0.997  0.000  0.997
 
band  18 # energy  -71.14745639 # occ.  2.00000000
 
ion      s      p      d    tot
  1  0.000  0.001  0.000  0.001
  2  0.000  0.000  0.000  0.000
  3  0.000  0.000  0.000  0.000
  4  0.000  0.000  0.000  0.000
  5  0.000  0.159  0.000  0.159
  6  0.000  0.156  0.000  0.156
  7  0.000  0.232  0.000  0.232
  8  0.000  0.428  0.000  0.428
  9  0.000  0.000  0.000  0.000
 10  0.000  0.013  0.000  0.013
 11  0.000  0.004  0.000  0.004
 12  0.000  0.004  0.000  0.004
 13  0.000  0.000  0.000  0.000
 14  0.000  0.000  0.000  0.000
 15  0.000  0.000  0.000  0.000
 16  0.000  0.000  0.000  0.000
 17  0.000  0.000  0.000  0.000
tot  0.000  0.997  0.000  0.997
 
band  19 # energy  -71.14730617 # occ.  2.00000000
 
ion      s      p      d    tot
  1  0.000  0.001  0.000  0.001
  2  0.000  0.000  0.000  0.000
  3  0.000  0.000  0.000  0.000
  4  0.000  0.000  0.000  0.000
  5  0.000  0.180  0.000  0.180
  6  0.000  0.186  0.000  0.186
  7  0.000  0.178  0.000  0.178
  8  0.000  0.431  0.000  0.431
  9  0.000  0.001  0.000  0.001
 10  0.000  0.002  0.000  0.002
 11  0.000  0.010  0.000  0.010
 12  0.000  0.009  0.000  0.009
 13  0.000  0.000  0.000  0.000
 14  0.000  0.000  0.000  0.000
 15  0.000  0.000  0.000  0.000
 16  0.000  0.000  0.000  0.000
 17  0.000  0.000  0.000  0.000
tot  0.000  0.997  0.000  0.997
 
band  20 # energy  -71.14593627 # occ.  2.00000000
 
ion      s      p      d    tot
  1  0.000  0.000  0.000  0.000
  2  0.000  0.000  0.000  0.000
  3  0.000  0.000  0.000  0.000
  4  0.000  0.000  0.000  0.000
  5  0.000  0.350  0.000  0.350
  6  0.000  0.346  0.000  0.346
  7  0.000  0.285  0.000  0.285
  8  0.000  0.004  0.000  0.004
  9  0.000  0.000  0.000  0.000
 10  0.000  0.003  0.000  0.003
 11  0.000  0.004  0.000  0.004
 12  0.000  0.005  0.000  0.005
 13  0.000  0.000  0.000  0.000
 14  0.000  0.000  0.000  0.000
 15  0.000  0.000  0.000  0.000
 16  0.000  0.000  0.000  0.000
 17  0.000  0.000  0.000  0.000
tot  0.000  0.997  0.000  0.997
 
band  21 # energy  -71.13399240 # occ.  2.00000000
 
ion      s      p      d    tot
  1  0.000  0.001  0.000  0.001
  2  0.000  0.000  0.000  0.000
  3  0.000  0.001  0.000  0.001
  4  0.000  0.001  0.000  0.001
  5  0.000  0.050  0.000  0.050
  6  0.000  0.048  0.000  0.048
  7  0.000  0.182  0.000  0.182
  8  0.000  0.025  0.000  0.025
  9  0.000  0.050  0.000  0.050
 10  0.000  0.119  0.000  0.119
 11  0.000  0.260  0.000  0.260
 12  0.000  0.258  0.000  0.258
 13  0.000  0.000  0.000  0.000
 14  0.000  0.000  0.000  0.000
 15  0.000  0.000  0.000  0.000
 16  0.000  0.000  0.000  0.000
 17  0.000  0.000  0.000  0.000
tot  0.000  0.996  0.000  0.996
 
band  22 # energy  -71.13364196 # occ.  2.00000000
 
ion      s      p      d    tot
  1  0.000  0.001  0.000  0.001
  2  0.000  0.001  0.000  0.001
  3  0.000  0.000  0.000  0.000
  4  0.000  0.001  0.000  0.001
  5  0.000  0.136  0.000  0.136
  6  0.000  0.137  0.000  0.137
  7  0.000  0.001  0.000  0.001
  8  0.000  0.025  0.000  0.025
  9  0.000  0.049  0.000  0.049
 10  0.000  0.300  0.000  0.300
 11  0.000  0.172  0.000  0.172
 12  0.000  0.173  0.000  0.173
 13  0.000  0.000  0.000  0.000
 14  0.000  0.000  0.000  0.000
 15  0.000  0.000  0.000  0.000
 16  0.000  0.000  0.000  0.000
 17  0.000  0.000  0.000  0.000
tot  0.000  0.996  0.000  0.996
 
band  23 # energy  -71.11822597 # occ.  2.00000000
 
ion      s      p      d    tot
  1  0.000  0.000  0.000  0.000
  2  0.000  0.000  0.000  0.000
  3  0.000  0.000  0.000  0.000
  4  0.000  0.000  0.000  0.000
  5  0.000  0.250  0.000  0.250
  6  0.000  0.237  0.000  0.237
  7  0.000  0.402  0.000  0.402
  8  0.000  0.100  0.000  0.100
  9  0.000  0.002  0.000  0.002
 10  0.000  0.005  0.000  0.005
 11  0.000  0.001  0.000  0.001
 12  0.000  0.001  0.000  0.001
 13  0.000  0.000  0.000  0.000
 14  0.000  0.000  0.000  0.000
 15  0.000  0.000  0.000  0.000
 16  0.000  0.000  0.000  0.000
 17  0.000  0.000  0.000  0.000
tot  0.000  0.998  0.000  0.998
 
band  24 # energy  -71.11792538 # occ.  2.00000000
 
ion      s      p      d    tot
  1  0.000  0.000  0.000  0.000
  2  0.000  0.000  0.000  0.000
  3  0.000  0.000  0.000  0.000
  4  0.000  0.000  0.000  0.000
  5  0.000  0.351  0.000  0.351
  6  0.000  0.363  0.000  0.363
  7  0.000  0.180  0.000  0.180
  8  0.000  0.095  0.000  0.095
  9  0.000  0.002  0.000  0.002
 10  0.000  0.000  0.000  0.000
 11  0.000  0.003  0.000  0.003
 12  0.000  0.003  0.000  0.003
 13  0.000  0.000  0.000  0.000
 14  0.000  0.000  0.000  0.000
 15  0.000  0.000  0.000  0.000
 16  0.000  0.000  0.000  0.000
 17  0.000  0.000  0.000  0.000
tot  0.000  0.998  0.000  0.998
 
band  25 # energy  -71.11299272 # occ.  2.00000000
 
ion      s      p      d    tot
  1  0.000  0.000  0.000  0.000
  2  0.000  0.000  0.000  0.000
  3  0.000  0.001  0.000  0.001
  4  0.000  0.001  0.000  0.001
  5  0.000  0.019  0.000  0.019
  6  0.000  0.019  0.000  0.019
  7  0.000  0.056  0.000  0.056
  8  0.000  0.061  0.000  0.061
  9  0.000  0.000  0.000  0.000
 10  0.000  0.036  0.000  0.036
 11  0.000  0.400  0.000  0.400
 12  0.000  0.401  0.000  0.401
 13  0.000  0.001  0.000  0.001
 14  0.000  0.001  0.000  0.001
 15  0.000  0.000  0.000  0.000
 16  0.000  0.000  0.000  0.000
 17  0.000  0.000  0.000  0.000
tot  0.000  0.997  0.000  0.997
 
band  26 # energy  -71.11247350 # occ.  2.00000000
 
ion      s      p      d    tot
  1  0.000  0.000  0.000  0.000
  2  0.000  0.000  0.000  0.000
  3  0.000  0.000  0.000  0.000
  4  0.000  0.000  0.000  0.000
  5  0.000  0.032  0.000  0.032
  6  0.000  0.032  0.000  0.032
  7  0.000  0.012  0.000  0.012
  8  0.000  0.001  0.000  0.001
  9  0.000  0.001  0.000  0.001
 10  0.000  0.000  0.000  0.000
 11  0.000  0.459  0.000  0.459
 12  0.000  0.458  0.000  0.458
 13  0.000  0.000  0.000  0.000
 14  0.000  0.001  0.000  0.001
 15  0.000  0.000  0.000  0.000
 16  0.000  0.000  0.000  0.000
 17  0.000  0.000  0.000  0.000
tot  0.000  0.997  0.000  0.997
 
band  27 # energy  -71.11116242 # occ.  2.00000000
 
ion      s      p      d    tot
  1  0.000  0.000  0.000  0.000
  2  0.000  0.001  0.000  0.001
  3  0.000  0.000  0.000  0.000
  4  0.000  0.000  0.000  0.000
  5  0.000  0.031  0.000  0.031
  6  0.000  0.031  0.000  0.031
  7  0.000  0.010  0.000  0.010
  8  0.000  0.011  0.000  0.011
  9  0.000  0.001  0.000  0.001
 10  0.000  0.853  0.000  0.853
 11  0.000  0.029  0.000  0.029
 12  0.000  0.028  0.000  0.028
 13  0.000  0.000  0.000  0.000
 14  0.000  0.000  0.000  0.000
 15  0.000  0.001  0.000  0.001
 16  0.000  0.001  0.000  0.001
 17  0.000  0.000  0.000  0.000
tot  0.000  0.997  0.000  0.997
 
band  28 # energy  -71.08718459 # occ.  2.00000000
 
ion      s      p      d    tot
  1  0.000  0.000  0.000  0.000
  2  0.000  0.000  0.000  0.000
  3  0.000  0.000  0.000  0.000
  4  0.000  0.000  0.000  0.000
  5  0.000  0.004  0.000  0.004
  6  0.000  0.004  0.000  0.004
  7  0.000  0.003  0.000  0.003
  8  0.000  0.007  0.000  0.007
  9  0.000  0.048  0.000  0.048
 10  0.000  0.098  0.000  0.098
 11  0.000  0.409  0.000  0.409
 12  0.000  0.424  0.000  0.424
 13  0.000  0.000  0.000  0.000
 14  0.000  0.000  0.000  0.000
 15  0.000  0.000  0.000  0.000
 16  0.000  0.000  0.000  0.000
 17  0.000  0.000  0.000  0.000
tot  0.000  0.998  0.000  0.998
 
band  29 # energy  -71.08681355 # occ.  2.00000000
 
ion      s      p      d    tot
  1  0.000  0.000  0.000  0.000
  2  0.000  0.000  0.000  0.000
  3  0.000  0.000  0.000  0.000
  4  0.000  0.000  0.000  0.000
  5  0.000  0.003  0.000  0.003
  6  0.000  0.003  0.000  0.003
  7  0.000  0.004  0.000  0.004
  8  0.000  0.007  0.000  0.007
  9  0.000  0.046  0.000  0.046
 10  0.000  0.516  0.000  0.516
 11  0.000  0.216  0.000  0.216
 12  0.000  0.202  0.000  0.202
 13  0.000  0.000  0.000  0.000
 14  0.000  0.000  0.000  0.000
 15  0.000  0.000  0.000  0.000
 16  0.000  0.000  0.000  0.000
 17  0.000  0.000  0.000  0.000
tot  0.000  0.998  0.000  0.998
 
band  30 # energy  -71.08293924 # occ.  2.00000000
 
ion      s      p      d    tot
  1  0.000  0.000  0.000  0.000
  2  0.000  0.000  0.000  0.000
  3  0.000  0.000  0.000  0.000
  4  0.000  0.000  0.000  0.000
  5  0.000  0.004  0.000  0.004
  6  0.000  0.004  0.000  0.004
  7  0.000  0.003  0.000  0.003
  8  0.000  0.000  0.000  0.000
  9  0.000  0.000  0.000  0.000
 10  0.000  0.355  0.000  0.355
 11  0.000  0.315  0.000  0.315
 12  0.000  0.315  0.000  0.315
 13  0.000  0.000  0.000  0.000
 14  0.000  0.000  0.000  0.000
 15  0.000  0.000  0.000  0.000
 16  0.000  0.000  0.000  0.000
 17  0.000  0.000  0.000  0.000
tot  0.000  0.997  0.000  0.997
 
band  31 # energy  -71.04519483 # occ.  2.00000000
 
ion      s      p      d    tot
  1  0.000  0.001  0.000  0.001
  2  0.000  0.000  0.000  0.000
  3  0.000  0.000  0.000  0.000
  4  0.000  0.000  0.000  0.000
  5  0.000  0.012  0.000  0.012
  6  0.000  0.012  0.000  0.012
  7  0.000  0.011  0.000  0.011
  8  0.000  0.000  0.000  0.000
  9  0.000  0.959  0.000  0.959
 10  0.000  0.000  0.000  0.000
 11  0.000  0.000  0.000  0.000
 12  0.000  0.000  0.000  0.000
 13  0.000  0.000  0.000  0.000
 14  0.000  0.000  0.000  0.000
 15  0.000  0.000  0.000  0.000
 16  0.000  0.000  0.000  0.000
 17  0.000  0.000  0.000  0.000
tot  0.000  0.997  0.000  0.997
 
band  32 # energy  -71.00971424 # occ.  2.00000000
 
ion      s      p      d    tot
  1  0.000  0.000  0.000  0.000
  2  0.000  0.000  0.000  0.000
  3  0.000  0.000  0.000  0.000
  4  0.000  0.000  0.000  0.000
  5  0.000  0.001  0.000  0.001
  6  0.000  0.001  0.000  0.001
  7  0.000  0.003  0.000  0.003
  8  0.000  0.000  0.000  0.000
  9  0.000  0.851  0.000  0.851
 10  0.000  0.002  0.000  0.002
 11  0.000  0.072  0.000  0.072
 12  0.000  0.067  0.000  0.067
 13  0.000  0.000  0.000  0.000
 14  0.000  0.000  0.000  0.000
 15  0.000  0.000  0.000  0.000
 16  0.000  0.000  0.000  0.000
 17  0.000  0.000  0.000  0.000
tot  0.000  0.998  0.000  0.998
 
band  33 # energy  -71.00939541 # occ.  2.00000000
 
ion      s      p      d    tot
  1  0.000  0.000  0.000  0.000
  2  0.000  0.000  0.000  0.000
  3  0.000  0.000  0.000  0.000
  4  0.000  0.000  0.000  0.000
  5  0.000  0.002  0.000  0.002
  6  0.000  0.003  0.000  0.003
  7  0.000  0.000  0.000  0.000
  8  0.000  0.000  0.000  0.000
  9  0.000  0.850  0.000  0.850
 10  0.000  0.094  0.000  0.094
 11  0.000  0.022  0.000  0.022
 12  0.000  0.027  0.000  0.027
 13  0.000  0.000  0.000  0.000
 14  0.000  0.000  0.000  0.000
 15  0.000  0.000  0.000  0.000
 16  0.000  0.000  0.000  0.000
 17  0.000  0.000  0.000  0.000
tot  0.000  0.998  0.000  0.998
 
band  34 # energy  -70.96298087 # occ.  2.00000000
 
ion      s      p      d    tot
  1  0.000  0.614  0.000  0.614
  2  0.000  0.019  0.000  0.019
  3  0.000  0.191  0.000  0.191
  4  0.000  0.162  0.000  0.162
  5  0.000  0.002  0.000  0.002
  6  0.000  0.001  0.000  0.001
  7  0.000  0.006  0.000  0.006
  8  0.000  0.000  0.000  0.000
  9  0.000  0.000  0.000  0.000
 10  0.000  0.000  0.000  0.000
 11  0.000  0.000  0.000  0.000
 12  0.000  0.000  0.000  0.000
 13  0.000  0.000  0.000  0.000
 14  0.000  0.000  0.000  0.000
 15  0.000  0.000  0.000  0.000
 16  0.000  0.000  0.000  0.000
 17  0.000  0.000  0.000  0.000
tot  0.000  0.996  0.000  0.996
 
band  35 # energy  -70.96289190 # occ.  2.00000000
 
ion      s      p      d    tot
  1  0.000  0.614  0.000  0.614
  2  0.000  0.228  0.000  0.228
  3  0.000  0.057  0.000  0.057
  4  0.000  0.087  0.000  0.087
  5  0.000  0.004  0.000  0.004
  6  0.000  0.005  0.000  0.005
  7  0.000  0.000  0.000  0.000
  8  0.000  0.000  0.000  0.000
  9  0.000  0.000  0.000  0.000
 10  0.000  0.000  0.000  0.000
 11  0.000  0.000  0.000  0.000
 12  0.000  0.000  0.000  0.000
 13  0.000  0.000  0.000  0.000
 14  0.000  0.000  0.000  0.000
 15  0.000  0.000  0.000  0.000
 16  0.000  0.000  0.000  0.000
 17  0.000  0.000  0.000  0.000
tot  0.000  0.996  0.000  0.996
 
band  36 # energy  -70.94219194 # occ.  2.00000000
 
ion      s      p      d    tot
  1  0.000  0.000  0.000  0.000
  2  0.000  0.329  0.000  0.329
  3  0.000  0.330  0.000  0.330
  4  0.000  0.330  0.000  0.330
  5  0.000  0.001  0.000  0.001
  6  0.000  0.001  0.000  0.001
  7  0.000  0.001  0.000  0.001
  8  0.000  0.004  0.000  0.004
  9  0.000  0.000  0.000  0.000
 10  0.000  0.000  0.000  0.000
 11  0.000  0.000  0.000  0.000
 12  0.000  0.000  0.000  0.000
 13  0.000  0.000  0.000  0.000
 14  0.000  0.000  0.000  0.000
 15  0.000  0.000  0.000  0.000
 16  0.000  0.000  0.000  0.000
 17  0.000  0.000  0.000  0.000
tot  0.000  0.995  0.000  0.995
 
band  37 # energy  -70.88456351 # occ.  2.00000000
 
ion      s      p      d    tot
  1  0.000  0.320  0.000  0.320
  2  0.000  0.217  0.000  0.217
  3  0.000  0.231  0.000  0.231
  4  0.000  0.227  0.000  0.227
  5  0.000  0.000  0.000  0.000
  6  0.000  0.000  0.000  0.000
  7  0.000  0.001  0.000  0.001
  8  0.000  0.000  0.000  0.000
  9  0.000  0.000  0.000  0.000
 10  0.000  0.000  0.000  0.000
 11  0.000  0.000  0.000  0.000
 12  0.000  0.000  0.000  0.000
 13  0.000  0.000  0.000  0.000
 14  0.000  0.000  0.000  0.000
 15  0.000  0.000  0.000  0.000
 16  0.000  0.000  0.000  0.000
 17  0.000  0.000  0.000  0.000
tot  0.000  0.997  0.000  0.997
 
band  38 # energy  -70.88453430 # occ.  2.00000000
 
ion      s      p      d    tot
  1  0.000  0.319  0.000  0.319
  2  0.000  0.228  0.000  0.228
  3  0.000  0.222  0.000  0.222
  4  0.000  0.226  0.000  0.226
  5  0.000  0.000  0.000  0.000
  6  0.000  0.001  0.000  0.001
  7  0.000  0.000  0.000  0.000
  8  0.000  0.000  0.000  0.000
  9  0.000  0.000  0.000  0.000
 10  0.000  0.000  0.000  0.000
 11  0.000  0.000  0.000  0.000
 12  0.000  0.000  0.000  0.000
 13  0.000  0.000  0.000  0.000
 14  0.000  0.000  0.000  0.000
 15  0.000  0.000  0.000  0.000
 16  0.000  0.000  0.000  0.000
 17  0.000  0.000  0.000  0.000
tot  0.000  0.997  0.000  0.997
 
band  39 # energy  -70.86976981 # occ.  2.00000000
 
ion      s      p      d    tot
  1  0.000  0.000  0.000  0.000
  2  0.000  0.335  0.000  0.335
  3  0.000  0.330  0.000  0.330
  4  0.000  0.331  0.000  0.331
  5  0.000  0.000  0.000  0.000
  6  0.000  0.000  0.000  0.000
  7  0.000  0.000  0.000  0.000
  8  0.000  0.000  0.000  0.000
  9  0.000  0.000  0.000  0.000
 10  0.000  0.000  0.000  0.000
 11  0.000  0.000  0.000  0.000
 12  0.000  0.000  0.000  0.000
 13  0.000  0.000  0.000  0.000
 14  0.000  0.000  0.000  0.000
 15  0.000  0.000  0.000  0.000
 16  0.000  0.000  0.000  0.000
 17  0.000  0.000  0.000  0.000
tot  0.000  0.997  0.000  0.997
 
band  40 # energy  -70.84966683 # occ.  2.00000000
 
ion      s      p      d    tot
  1  0.000  0.058  0.000  0.058
  2  0.000  0.423  0.000  0.423
  3  0.000  0.224  0.000  0.224
  4  0.000  0.293  0.000  0.293
  5  0.000  0.000  0.000  0.000
  6  0.000  0.000  0.000  0.000
  7  0.000  0.000  0.000  0.000
  8  0.000  0.000  0.000  0.000
  9  0.000  0.000  0.000  0.000
 10  0.000  0.000  0.000  0.000
 11  0.000  0.000  0.000  0.000
 12  0.000  0.000  0.000  0.000
 13  0.000  0.000  0.000  0.000
 14  0.000  0.000  0.000  0.000
 15  0.000  0.000  0.000  0.000
 16  0.000  0.000  0.000  0.000
 17  0.000  0.000  0.000  0.000
tot  0.000  0.998  0.000  0.998
 
band  41 # energy  -70.84961161 # occ.  2.00000000
 
ion      s      p      d    tot
  1  0.000  0.058  0.000  0.058
  2  0.000  0.207  0.000  0.207
  3  0.000  0.401  0.000  0.401
  4  0.000  0.332  0.000  0.332
  5  0.000  0.000  0.000  0.000
  6  0.000  0.000  0.000  0.000
  7  0.000  0.000  0.000  0.000
  8  0.000  0.000  0.000  0.000
  9  0.000  0.000  0.000  0.000
 10  0.000  0.000  0.000  0.000
 11  0.000  0.000  0.000  0.000
 12  0.000  0.000  0.000  0.000
 13  0.000  0.000  0.000  0.000
 14  0.000  0.000  0.000  0.000
 15  0.000  0.000  0.000  0.000
 16  0.000  0.000  0.000  0.000
 17  0.000  0.000  0.000  0.000
tot  0.000  0.998  0.000  0.998
 
band  42 # energy  -70.84691827 # occ.  2.00000000
 
ion      s      p      d    tot
  1  0.000  0.960  0.000  0.960
  2  0.000  0.010  0.000  0.010
  3  0.000  0.010  0.000  0.010
  4  0.000  0.010  0.000  0.010
  5  0.000  0.002  0.000  0.002
  6  0.000  0.002  0.000  0.002
  7  0.000  0.002  0.000  0.002
  8  0.000  0.000  0.000  0.000
  9  0.000  0.000  0.000  0.000
 10  0.000  0.000  0.000  0.000
 11  0.000  0.000  0.000  0.000
 12  0.000  0.000  0.000  0.000
 13  0.000  0.000  0.000  0.000
 14  0.000  0.000  0.000  0.000
 15  0.000  0.000  0.000  0.000
 16  0.000  0.000  0.000  0.000
 17  0.000  0.000  0.000  0.000
tot  0.000  0.997  0.000  0.997
 
band  43 # energy  -70.82090966 # occ.  2.00000000
 
ion      s      p      d    tot
  1  0.000  0.031  0.000  0.031
  2  0.000  0.314  0.000  0.314
  3  0.000  0.323  0.000  0.323
  4  0.000  0.323  0.000  0.323
  5  0.000  0.001  0.000  0.001
  6  0.000  0.001  0.000  0.001
  7  0.000  0.001  0.000  0.001
  8  0.000  0.003  0.000  0.003
  9  0.000  0.000  0.000  0.000
 10  0.000  0.000  0.000  0.000
 11  0.000  0.000  0.000  0.000
 12  0.000  0.000  0.000  0.000
 13  0.000  0.000  0.000  0.000
 14  0.000  0.000  0.000  0.000
 15  0.000  0.000  0.000  0.000
 16  0.000  0.000  0.000  0.000
 17  0.000  0.000  0.000  0.000
tot  0.000  0.997  0.000  0.997
 
band  44 # energy  -70.81359947 # occ.  2.00000000
 
ion      s      p      d    tot
  1  0.000  0.000  0.000  0.000
  2  0.000  0.001  0.000  0.001
  3  0.000  0.497  0.000  0.497
  4  0.000  0.496  0.000  0.496
  5  0.000  0.001  0.000  0.001
  6  0.000  0.001  0.000  0.001
  7  0.000  0.001  0.000  0.001
  8  0.000  0.001  0.000  0.001
  9  0.000  0.000  0.000  0.000
 10  0.000  0.000  0.000  0.000
 11  0.000  0.000  0.000  0.000
 12  0.000  0.000  0.000  0.000
 13  0.000  0.000  0.000  0.000
 14  0.000  0.000  0.000  0.000
 15  0.000  0.000  0.000  0.000
 16  0.000  0.000  0.000  0.000
 17  0.000  0.000  0.000  0.000
tot  0.000  0.997  0.000  0.997
 
band  45 # energy  -70.81354336 # occ.  2.00000000
 
ion      s      p      d    tot
  1  0.000  0.000  0.000  0.000
  2  0.000  0.668  0.000  0.668
  3  0.000  0.163  0.000  0.163
  4  0.000  0.164  0.000  0.164
  5  0.000  0.001  0.000  0.001
  6  0.000  0.001  0.000  0.001
  7  0.000  0.001  0.000  0.001
  8  0.000  0.001  0.000  0.001
  9  0.000  0.000  0.000  0.000
 10  0.000  0.000  0.000  0.000
 11  0.000  0.000  0.000  0.000
 12  0.000  0.000  0.000  0.000
 13  0.000  0.000  0.000  0.000
 14  0.000  0.000  0.000  0.000
 15  0.000  0.000  0.000  0.000
 16  0.000  0.000  0.000  0.000
 17  0.000  0.000  0.000  0.000
tot  0.000  0.997  0.000  0.997
 