<?xml version="1.0" encoding="ISO-8859-1"?>
<modeling>
 <generator>
  <i name="program" type="string">vasp </i>
  <i name="version" type="string">5.3.5  </i>
  <i name="subversion" type="string">31Mar14 (build Oct 26 2016 13:29:44) complex                          parallel </i>
  <i name="platform" type="string">GRP7IFC17NORMALVTST </i>
  <i name="date" type="string">2017 07 12 </i>
  <i name="time" type="string">16:51:46 </i>
 </generator>
 <incar>
  <i type="string" name="PREC">accurate</i>
  <i type="int" name="NELMIN">     5</i>
  <i type="int" name="IBRION">     2</i>
  <i name="EDIFF">      0.00001000</i>
  <i type="int" name="NSW">   150</i>
  <i name="ENCUT">    400.00000000</i>
  <i name="POTIM">      0.50000000</i>
  <i type="logical" name="LREAL"> F  </i>
  <i type="int" name="ISMEAR">     0</i>
  <i name="SIGMA">      0.10000000</i>
  <i type="logical" name="LWAVE"> F  </i>
  <i type="logical" name="LCHARG"> F  </i>
  <i type="logical" name="LORBIT"> F  </i>
  <i type="logical" name="LASPH"> T  </i>
  <i type="logical" name="LDIPOL"> T  </i>
  <i type="int" name="IDIPOL">     3</i>
  <i type="logical" name="LASPH"> T  </i>
 </incar>
 <kpoints>
  <generation param="Gamma">
   <v type="int" name="divisions">       6        6        1 </v>
   <v name="usershift">      0.00000000       0.00000000       0.00000000 </v>
   <v name="genvec1">      0.16666667       0.00000000       0.00000000 </v>
   <v name="genvec2">      0.00000000       0.16666667       0.00000000 </v>
   <v name="genvec3">      0.00000000       0.00000000       1.00000000 </v>
   <v name="shift">      0.00000000       0.00000000       0.00000000 </v>
  </generation>
  <varray name="kpointlist" >
   <v>       0.00000000       0.00000000       0.00000000 </v>
   <v>       0.16666667      -0.00000000       0.00000000 </v>
   <v>       0.33333333       0.00000000       0.00000000 </v>
   <v>       0.50000000      -0.00000000       0.00000000 </v>
   <v>       0.00000000       0.16666667       0.00000000 </v>
   <v>       0.33333333       0.16666667       0.00000000 </v>
   <v>       0.50000000       0.16666667       0.00000000 </v>
   <v>       0.00000000       0.33333333       0.00000000 </v>
   <v>       0.16666667       0.33333333       0.00000000 </v>
   <v>       0.50000000       0.33333333       0.00000000 </v>
   <v>      -0.33333333       0.33333333       0.00000000 </v>
   <v>       0.00000000       0.50000000       0.00000000 </v>
   <v>       0.16666667       0.50000000       0.00000000 </v>
  </varray>
  <varray name="weights" >
   <v>       0.02777778 </v>
   <v>       0.05555556 </v>
   <v>       0.05555556 </v>
   <v>       0.02777778 </v>
   <v>       0.11111111 </v>
   <v>       0.11111111 </v>
   <v>       0.11111111 </v>
   <v>       0.11111111 </v>
   <v>       0.05555556 </v>
   <v>       0.11111111 </v>
   <v>       0.05555556 </v>
   <v>       0.05555556 </v>
   <v>       0.11111111 </v>
  </varray>
 </kpoints>
 <parameters>
  <separator name="general" >
   <i type="string" name="SYSTEM">unknown system</i>
   <i type="logical" name="LCOMPAT"> F  </i>
  </separator>
  <separator name="electronic" >
   <i type="string" name="PREC">accura</i>
   <i name="ENMAX">    400.00000000</i>
   <i name="ENAUG">    758.23300000</i>
   <i name="EDIFF">      0.00001000</i>
   <i type="int" name="IALGO">    38</i>
   <i type="int" name="IWAVPR">    11</i>
   <i type="int" name="NBANDS">   168</i>
   <i name="NELECT">    276.00000000</i>
   <i type="int" name="TURBO">     0</i>
   <i type="int" name="IRESTART">     0</i>
   <i type="int" name="NREBOOT">     0</i>
   <i type="int" name="NMIN">     0</i>
   <i name="EREF">      0.00000000</i>
   <separator name="electronic smearing" >
    <i type="int" name="ISMEAR">     0</i>
    <i name="SIGMA">      0.10000000</i>
    <i name="KSPACING">      0.50000000</i>
    <i type="logical" name="KGAMMA"> T  </i>
   </separator>
   <separator name="electronic projectors" >
    <i type="logical" name="LREAL"> F  </i>
    <v name="ROPT">      0.00000000      0.00000000</v>
    <i type="int" name="LMAXPAW">  -100</i>
    <i type="int" name="LMAXMIX">     2</i>
    <i type="logical" name="NLSPLINE"> F  </i>
   </separator>
   <separator name="electronic startup" >
    <i type="int" name="ISTART">     0</i>
    <i type="int" name="ICHARG">     2</i>
    <i type="int" name="INIWAV">     1</i>
   </separator>
   <separator name="electronic spin" >
    <i type="int" name="ISPIN">     1</i>
    <i type="logical" name="LNONCOLLINEAR"> F  </i>
    <v name="MAGMOM">      1.00000000      1.00000000      1.00000000      1.00000000      1.00000000      1.00000000      1.00000000      1.00000000      1.00000000      1.00000000      1.00000000      1.00000000      1.00000000      1.00000000      1.00000000      1.00000000      1.00000000</v>
    <i name="NUPDOWN">     -1.00000000</i>
    <i type="logical" name="LSORBIT"> F  </i>
    <v name="SAXIS">      0.00000000      0.00000000      1.00000000</v>
    <i type="logical" name="LSPIRAL"> F  </i>
    <v name="QSPIRAL">      0.00000000      0.00000000      0.00000000</v>
    <i type="logical" name="LZEROZ"> F  </i>
   </separator>
   <separator name="electronic exchange-correlation" >
    <i type="logical" name="LASPH"> T  </i>
    <i type="logical" name="LMETAGGA"> F  </i>
   </separator>
   <separator name="electronic convergence" >
    <i type="int" name="NELM">    60</i>
    <i type="int" name="NELMDL">    -5</i>
    <i type="int" name="NELMIN">     5</i>
    <i name="ENINI">    400.00000000</i>
    <separator name="electronic convergence detail" >
     <i type="logical" name="LDIAG"> T  </i>
     <i type="logical" name="LSUBROT"> F  </i>
     <i name="WEIMIN">      0.00100000</i>
     <i name="EBREAK">      0.00000001</i>
     <i name="DEPER">      0.30000000</i>
     <i type="int" name="NRMM">     4</i>
     <i name="TIME">      0.40000000</i>
    </separator>
   </separator>
   <separator name="electronic mixer" >
    <i name="AMIX">      0.40000000</i>
    <i name="BMIX">      1.00000000</i>
    <i name="AMIN">      0.10000000</i>
    <i name="AMIX_MAG">      1.60000000</i>
    <i name="BMIX_MAG">      1.00000000</i>
    <separator name="electronic mixer details" >
     <i type="int" name="IMIX">     4</i>
     <i type="int" name="MAXMIX">   -45</i>
     <i name="WC">    100.00000000</i>
     <i type="int" name="INIMIX">     1</i>
     <i type="int" name="MIXPRE">     1</i>
     <i type="int" name="MREMOVE">     5</i>
    </separator>
   </separator>
   <separator name="electronic dipolcorrection" >
    <i type="logical" name="LDIPOL"> T  </i>
    <i type="logical" name="LMONO"> F  </i>
    <i type="int" name="IDIPOL">     3</i>
    <i name="EPSILON">      1.00000000</i>
    <v name="DIPOL">   -100.00000000   -100.00000000   -100.00000000</v>
    <i name="EFIELD">      0.00000000</i>
   </separator>
  </separator>
  <separator name="grids" >
   <i type="int" name="NGX">    36</i>
   <i type="int" name="NGY">    36</i>
   <i type="int" name="NGZ">   180</i>
   <i type="int" name="NGXF">    72</i>
   <i type="int" name="NGYF">    72</i>
   <i type="int" name="NGZF">   360</i>
   <i type="logical" name="ADDGRID"> F  </i>
  </separator>
  <separator name="ionic" >
   <i type="int" name="NSW">   150</i>
   <i type="int" name="IBRION">     2</i>
   <i type="int" name="ISIF">     2</i>
   <i name="PSTRESS">      0.00000000</i>
   <i name="EDIFFG">      0.00010000</i>
   <i type="int" name="NFREE">     1</i>
   <i name="POTIM">      0.50000000</i>
   <i name="SMASS">     -3.00000000</i>
   <i name="SCALEE">      1.00000000</i>
  </separator>
  <separator name="ionic md" >
   <i name="TEBEG">      0.00010000</i>
   <i name="TEEND">      0.00010000</i>
   <i type="int" name="NBLOCK">     1</i>
   <i type="int" name="KBLOCK">   150</i>
   <i type="int" name="NPACO">   256</i>
   <i name="APACO">     16.00000000</i>
  </separator>
  <separator name="symmetry" >
   <i type="int" name="ISYM">     2</i>
   <i name="SYMPREC">      0.00001000</i>
  </separator>
  <separator name="dos" >
   <i type="logical" name="LORBIT"> F  </i>
   <v name="RWIGS">     -1.00000000     -1.00000000</v>
   <i type="int" name="NEDOS">   301</i>
   <i name="EMIN">     10.00000000</i>
   <i name="EMAX">    -10.00000000</i>
   <i name="EFERMI">      0.00000000</i>
  </separator>
  <separator name="writing" >
   <i type="int" name="NWRITE">     2</i>
   <i type="logical" name="LWAVE"> F  </i>
   <i type="logical" name="LCHARG"> F  </i>
   <i type="logical" name="LPARD"> F  </i>
   <i type="logical" name="LVTOT"> F  </i>
   <i type="logical" name="LVHAR"> F  </i>
   <i type="logical" name="LELF"> F  </i>
   <i type="logical" name="LOPTICS"> F  </i>
   <v name="STM">      0.00000000      0.00000000      0.00000000      0.00000000      0.00000000      0.00000000      0.00000000</v>
  </separator>
  <separator name="performance" >
   <i type="int" name="NPAR">     4</i>
   <i type="int" name="NSIM">     4</i>
   <i type="int" name="NBLK">    -1</i>
   <i type="logical" name="LPLANE"> T  </i>
   <i type="logical" name="LSCALAPACK"> T  </i>
   <i type="logical" name="LSCAAWARE"> F  </i>
   <i type="logical" name="LSCALU"> F  </i>
   <i type="logical" name="LASYNC"> F  </i>
   <i type="logical" name="LORBITALREAL"> F  </i>
  </separator>
  <separator name="miscellaneous" >
   <i type="int" name="IDIOT">     3</i>
   <i type="logical" name="LMUSIC"> F  </i>
   <v name="POMASS">     63.54600000     12.01100000</v>
   <v name="DARWINR">      0.00000000      0.00000000</v>
   <v name="DARWINV">      1.00000000      1.00000000</v>
   <i type="logical" name="LCORR"> T  </i>
  </separator>
  <i type="logical" name="GGA_COMPAT"> T  </i>
  <i type="logical" name="LBERRY"> F  </i>
  <i type="int" name="ICORELEVEL">     0</i>
  <i type="logical" name="LDAU"> F  </i>
  <i type="int" name="I_CONSTRAINED_M">     0</i>
  <separator name="electronic exchange-correlation" >
   <i type="string" name="GGA">--</i>
   <i type="int" name="VOSKOWN">     0</i>
   <i type="logical" name="LHFCALC"> F  </i>
   <i type="string" name="PRECFOCK"></i>
   <i type="logical" name="LSYMGRAD"> F  </i>
   <i type="logical" name="LHFONE"> F  </i>
   <i type="logical" name="LRHFCALC"> F  </i>
   <i type="logical" name="LTHOMAS"> F  </i>
   <i type="logical" name="LMODELHF"> F  </i>
   <i name="ENCUT4O">     -1.00000000</i>
   <i type="int" name="EXXOEP">     0</i>
   <i type="int" name="FOURORBIT">     0</i>
   <i name="AEXX">      0.00000000</i>
   <i name="HFALPHA">      0.00000000</i>
   <i name="MCALPHA">      0.00000000</i>
   <i name="ALDAX">      1.00000000</i>
   <i name="AGGAX">      1.00000000</i>
   <i name="ALDAC">      1.00000000</i>
   <i name="AGGAC">      1.00000000</i>
   <i type="int" name="NKREDX">     1</i>
   <i type="int" name="NKREDY">     1</i>
   <i type="int" name="NKREDZ">     1</i>
   <i type="logical" name="SHIFTRED"> F  </i>
   <i type="logical" name="ODDONLY"> F  </i>
   <i type="logical" name="EVENONLY"> F  </i>
   <i type="int" name="LMAXFOCK">     0</i>
   <i type="int" name="NMAXFOCKAE">     0</i>
   <i type="logical" name="LFOCKAEDFT"> F  </i>
   <i name="HFSCREEN">      0.00000000</i>
   <i name="HFSCREENC">      0.00000000</i>
   <i type="int" name="NBANDSGWLOW">     0</i>
  </separator>
  <separator name="vdW DFT" >
   <i type="logical" name="LUSE_VDW"> F  </i>
   <i name="Zab_VDW">     -0.84910000</i>
   <i name="PARAM1">      0.12340000</i>
   <i name="PARAM2">      1.00000000</i>
   <i name="PARAM3">      0.00000000</i>
  </separator>
  <separator name="model GW" >
   <i type="int" name="MODEL_GW">     0</i>
   <i name="MODEL_EPS0">     20.18421637</i>
   <i name="MODEL_ALPHA">      1.00000000</i>
  </separator>
  <separator name="linear response parameters" >
   <i type="logical" name="LEPSILON"> F  </i>
   <i type="logical" name="LRPA"> F  </i>
   <i type="logical" name="LNABLA"> F  </i>
   <i type="logical" name="LVEL"> F  </i>
   <i type="int" name="KINTER">     0</i>
   <i name="CSHIFT">      0.10000000</i>
   <i name="OMEGAMAX">     -1.00000000</i>
   <i name="DEG_THRESHOLD">      0.00200000</i>
  </separator>
  <separator name="orbital magnetization" >
   <i type="logical" name="NUCIND"> F  </i>
   <v name="MAGPOS">      0.00000000      0.00000000      0.00000000</v>
   <i type="logical" name="LNICSALL"> T  </i>
   <i type="logical" name="ORBITALMAG"> F  </i>
   <i type="logical" name="LMAGBLOCH"> F  </i>
   <i type="logical" name="LCHIMAG"> F  </i>
   <i type="logical" name="LGAUGE"> T  </i>
   <i type="int" name="MAGATOM">     0</i>
   <v name="MAGDIPOL">      0.00000000      0.00000000      0.00000000</v>
   <v name="AVECCONST">      0.00000000      0.00000000      0.00000000</v>
  </separator>
  <separator name="response functions" >
   <i type="logical" name="LADDER"> F  </i>
   <i type="logical" name="LFXC"> F  </i>
   <i type="logical" name="LHARTREE"> T  </i>
   <i type="int" name="IBSE">     0</i>
   <i type="logical" name="LTCTE"> F  </i>
   <i type="logical" name="LTETE"> F  </i>
   <i type="logical" name="LTRIPLET"> F  </i>
   <i type="logical" name="LFXCEPS"> F  </i>
   <i type="logical" name="LFXHEG"> F  </i>
   <i type="logical" name="L2ORDER"> F  </i>
   <i type="logical" name="LUSEW"> F  </i>
   <i name="ENCUTGW">     -2.00000000</i>
   <i name="ENCUTGWSOFT">     -2.00000000</i>
   <i name="ENCUTLF">     -1.00000000</i>
   <i type="int" name="LMAXMP2">    -1</i>
   <i name="SCISSOR">      0.00000000</i>
   <i type="int" name="NOMEGA">     0</i>
   <i type="int" name="NOMEGAR">     0</i>
   <i type="int" name="NBANDSGW">    -1</i>
   <i type="int" name="NBANDSO">    -1</i>
   <i type="int" name="NBANDSV">    -1</i>
   <i type="int" name="NELM">     1</i>
   <i type="int" name="DIM">     3</i>
   <i type="int" name="ANTIRES">     0</i>
   <i name="OMEGAMAX">    -30.00000000</i>
   <i name="OMEGAMIN">    -30.00000000</i>
   <i name="OMEGATL">   -200.00000000</i>
   <i type="int" name="OMEGAGRID">     0</i>
   <i name="CSHIFT">     -0.10000000</i>
   <i type="logical" name="SELFENERGY"> F  </i>
   <i type="logical" name="LSPECTRAL"> F  </i>
   <i type="logical" name="ODDONLYGW"> F  </i>
   <i type="logical" name="EVENONLYGW"> F  </i>
   <i type="int" name="NKREDLFX">     1</i>
   <i type="int" name="NKREDLFY">     1</i>
   <i type="int" name="NKREDLFZ">     1</i>
   <i type="int" name="MAXMEM">  1800</i>
   <i type="int" name="TELESCOPE">     0</i>
   <i type="int" name="TAUPAR">     1</i>
  </separator>
  <separator name="External order field" >
   <i name="OFIELD_KAPPA">      0.00000000</i>
   <v name="OFIELD_K">      0.00000000      0.00000000      0.00000000</v>
   <i name="OFIELD_Q6_NEAR">      0.00000000</i>
   <i name="OFIELD_Q6_FAR">      0.00000000</i>
   <i name="OFIELD_A">      0.00000000</i>
  </separator>
 </parameters>
 <atominfo>
  <atoms>      17 </atoms>
  <types>       2 </types>
  <array name="atoms" >
   <dimension dim="1">ion</dimension>
   <field type="string">element</field>
   <field type="int">atomtype</field>
   <set>
    <rc><c>Cu</c><c>   1</c></rc>
    <rc><c>Cu</c><c>   1</c></rc>
    <rc><c>Cu</c><c>   1</c></rc>
    <rc><c>Cu</c><c>   1</c></rc>
    <rc><c>Cu</c><c>   1</c></rc>
    <rc><c>Cu</c><c>   1</c></rc>
    <rc><c>Cu</c><c>   1</c></rc>
    <rc><c>Cu</c><c>   1</c></rc>
    <rc><c>Cu</c><c>   1</c></rc>
    <rc><c>Cu</c><c>   1</c></rc>
    <rc><c>Cu</c><c>   1</c></rc>
    <rc><c>Cu</c><c>   1</c></rc>
    <rc><c>Cu</c><c>   1</c></rc>
    <rc><c>Cu</c><c>   1</c></rc>
    <rc><c>Cu</c><c>   1</c></rc>
    <rc><c>Cu</c><c>   1</c></rc>
    <rc><c>C </c><c>   2</c></rc>
   </set>
  </array>
  <array name="atomtypes" >
   <dimension dim="1">type</dimension>
   <field type="int">atomspertype</field>
   <field type="string">element</field>
   <field>mass</field>
   <field>valence</field>
   <field type="string">pseudopotential</field>
   <set>
    <rc><c>  16</c><c>Cu</c><c>     63.54600000</c><c>     17.00000000</c><c>  PAW_PBE Cu_pv 06Sep2000               </c></rc>
    <rc><c>   1</c><c>C </c><c>     12.01100000</c><c>      4.00000000</c><c>  PAW_PBE C 08Apr2002                   </c></rc>
   </set>
  </array>
 </atominfo>
 <structure name="initialpos" >
  <crystal>
   <varray name="basis" >
    <v>       5.01969481       0.00000000       0.00000000 </v>
    <v>       2.50984740       4.34718322       0.00000000 </v>
    <v>       0.00000000       0.00000000      26.20742226 </v>
   </varray>
   <i name="volume">    571.88613037 </i>
   <varray name="rec_basis" >
    <v>       0.19921530      -0.11501701       0.00000000 </v>
    <v>       0.00000000       0.23003401       0.00000000 </v>
    <v>       0.00000000       0.00000000       0.03815713 </v>
   </varray>
  </crystal>
  <varray name="positions" >
   <v>       0.00000000       0.00000000       0.00000000 </v>
   <v>       0.00000000       0.50000000       0.00000000 </v>
   <v>       0.50000000       0.00000000       0.00000000 </v>
   <v>       0.50000000       0.50000000       0.00000000 </v>
   <v>       0.16666667       0.16666667       0.07819471 </v>
   <v>       0.16666667       0.66666669       0.07819471 </v>
   <v>       0.66666669       0.16666667       0.07819471 </v>
   <v>       0.66666669       0.66666669       0.07819471 </v>
   <v>       0.33361860       0.33319071       0.15703898 </v>
   <v>       0.33361860       0.83319074       0.15703898 </v>
   <v>       0.83218972       0.33390517       0.15703578 </v>
   <v>       0.83218972       0.83390520       0.15703578 </v>
   <v>       0.99347096       0.00326452       0.23776036 </v>
   <v>       0.99347096       0.50326452       0.23776036 </v>
   <v>       0.51082144       0.99458928       0.23886979 </v>
   <v>       0.51082144       0.49458928       0.23886979 </v>
   <v>       0.31681801       0.34159101       0.28491588 </v>
  </varray>
  <varray name="selective"  type="logical" >
   <v type="logical" >  F  F  F </v>
   <v type="logical" >  F  F  F </v>
   <v type="logical" >  F  F  F </v>
   <v type="logical" >  F  F  F </v>
   <v type="logical" >  F  F  F </v>
   <v type="logical" >  F  F  F </v>
   <v type="logical" >  F  F  F </v>
   <v type="logical" >  F  F  F </v>
   <v type="logical" >  T  T  T </v>
   <v type="logical" >  T  T  T </v>
   <v type="logical" >  T  T  T </v>
   <v type="logical" >  T  T  T </v>
   <v type="logical" >  T  T  T </v>
   <v type="logical" >  T  T  T </v>
   <v type="logical" >  T  T  T </v>
   <v type="logical" >  T  T  T </v>
   <v type="logical" >  T  T  T </v>
  </varray>
  <nose>
   <v>      -3.00000000       0.00000000       0.00010000       0.00010000 </v>
  </nose>
 </structure>
 <calculation>
  <scstep>
   <time name="dav">   11.06   11.08</time>
   <time name="total">   11.42   11.44</time>
   <dipole>
    <v name="dipole">      0.00000000       0.00000000       0.00000992 </v>
    <i name="Tr[quadrupol]">  -1352.37039963 </i>
    <i name="Echarged">      0.00000000 </i>
    <i name="Edipol_quadrupol">      0.00000000 </i>
    <i name="Eion">      0.00000000 </i>
   </dipole>
   <energy>
    <i name="alphaZ">    831.83602239 </i>
    <i name="ewald"> 282623.77790592 </i>
    <i name="hartreedc">-341810.08915295 </i>
    <i name="XCdc">   1745.13423276 </i>
    <i name="pawpsdc">  55786.54480181 </i>
    <i name="pawaedc"> -58178.33743849 </i>
    <i name="eentropy">     -0.01598634 </i>
    <i name="bandstr">  -4370.59596790 </i>
    <i name="atom">  66067.45489428 </i>
    <i name="e_fr_energy">   2695.70931148 </i>
    <i name="e_wo_entrp">   2695.72529782 </i>
    <i name="e_0_energy">   2695.71730465 </i>
   </energy>
  </scstep>
  <scstep>
   <time name="dav">    9.72    9.73</time>
   <time name="total">    9.73    9.89</time>
   <dipole>
    <v name="dipole">      0.00000000       0.00000000       0.00000992 </v>
    <i name="Tr[quadrupol]">  -1352.37039963 </i>
    <i name="Echarged">      0.00000000 </i>
    <i name="Edipol_quadrupol">      0.00000000 </i>
    <i name="Eion">      0.00000000 </i>
   </dipole>
   <energy>
    <i name="e_fr_energy">     65.99197387 </i>
    <i name="e_wo_entrp">     66.03369839 </i>
    <i name="e_0_energy">     66.01283613 </i>
   </energy>
  </scstep>
  <scstep>
   <time name="dav">    9.96    9.98</time>
   <time name="total">    9.97   10.14</time>
   <dipole>
    <v name="dipole">      0.00000000       0.00000000       0.00000992 </v>
    <i name="Tr[quadrupol]">  -1352.37039963 </i>
    <i name="Echarged">      0.00000000 </i>
    <i name="Edipol_quadrupol">      0.00000000 </i>
    <i name="Eion">      0.00000000 </i>
   </dipole>
   <energy>
    <i name="e_fr_energy">    -75.39636445 </i>
    <i name="e_wo_entrp">    -75.35461992 </i>
    <i name="e_0_energy">    -75.37549218 </i>
   </energy>
  </scstep>
  <scstep>
   <time name="dav">    9.78    9.79</time>
   <time name="total">    9.78    9.94</time>
   <dipole>
    <v name="dipole">      0.00000000       0.00000000       0.00000992 </v>
    <i name="Tr[quadrupol]">  -1352.37039963 </i>
    <i name="Echarged">      0.00000000 </i>
    <i name="Edipol_quadrupol">      0.00000000 </i>
    <i name="Eion">      0.00000000 </i>
   </dipole>
   <energy>
    <i name="e_fr_energy">    -79.40255688 </i>
    <i name="e_wo_entrp">    -79.36142785 </i>
    <i name="e_0_energy">    -79.38199236 </i>
   </energy>
  </scstep>
  <scstep>
   <time name="dav">   10.36   10.37</time>
   <time name="total">   10.95   11.15</time>
   <dipole>
    <v name="dipole">      0.00000000       0.00000000       0.00000992 </v>
    <i name="Tr[quadrupol]">  -1352.37039963 </i>
    <i name="Echarged">      0.00000000 </i>
    <i name="Edipol_quadrupol">      0.00000000 </i>
    <i name="Eion">      0.00000000 </i>
   </dipole>
   <energy>
    <i name="e_fr_energy">    -79.54762112 </i>
    <i name="e_wo_entrp">    -79.50653173 </i>
    <i name="e_0_energy">    -79.52707642 </i>
   </energy>
  </scstep>
  <scstep>
   <time name="dav">   10.34   10.35</time>
   <time name="total">   11.28   11.39</time>
   <dipole>
    <v name="dipole">      0.00000000       0.00000000       0.62203449 </v>
    <i name="Tr[quadrupol]">  -1350.00935700 </i>
    <i name="Echarged">      0.00000000 </i>
    <i name="Edipol_quadrupol">      0.00000000 </i>
    <i name="Eion">      0.00000000 </i>
   </dipole>
   <energy>
    <i name="e_fr_energy">    -83.68781767 </i>
    <i name="e_wo_entrp">    -83.65007520 </i>
    <i name="e_0_energy">    -83.66894643 </i>
   </energy>
  </scstep>
  <scstep>
   <time name="dav">   11.40   11.42</time>
   <time name="total">   12.36   12.41</time>
   <dipole>
    <v name="dipole">      0.00000000       0.00000000      -0.37041838 </v>
    <i name="Tr[quadrupol]">  -1351.89483856 </i>
    <i name="Echarged">      0.00000000 </i>
    <i name="Edipol_quadrupol">      0.00000000 </i>
    <i name="Eion">      0.00000000 </i>
   </dipole>
   <energy>
    <i name="e_fr_energy">    -68.36129150 </i>
    <i name="e_wo_entrp">    -68.31290889 </i>
    <i name="e_0_energy">    -68.33710019 </i>
   </energy>
  </scstep>
  <scstep>
   <time name="dav">   10.96   10.97</time>
   <time name="total">   11.91   12.04</time>
   <dipole>
    <v name="dipole">      0.00000000       0.00000000       0.59299049 </v>
    <i name="Tr[quadrupol]">  -1351.65125507 </i>
    <i name="Echarged">      0.00000000 </i>
    <i name="Edipol_quadrupol">      0.00000000 </i>
    <i name="Eion">      0.00000000 </i>
   </dipole>
   <energy>
    <i name="e_fr_energy">    -70.89232597 </i>
    <i name="e_wo_entrp">    -70.84572412 </i>
    <i name="e_0_energy">    -70.86902504 </i>
   </energy>
  </scstep>
  <scstep>
   <time name="dav">   10.76   10.77</time>
   <time name="total">   11.71   11.77</time>
   <dipole>
    <v name="dipole">      0.00000000       0.00000000      -0.17858973 </v>
    <i name="Tr[quadrupol]">  -1352.55806523 </i>
    <i name="Echarged">      0.00000000 </i>
    <i name="Edipol_quadrupol">      0.00000000 </i>
    <i name="Eion">      0.00000000 </i>
   </dipole>
   <energy>
    <i name="e_fr_energy">    -64.32738953 </i>
    <i name="e_wo_entrp">    -64.27656901 </i>
    <i name="e_0_energy">    -64.30197927 </i>
   </energy>
  </scstep>
  <scstep>
   <time name="dav">   10.76   10.78</time>
   <time name="total">   11.70   11.77</time>
   <dipole>
    <v name="dipole">      0.00000000       0.00000000      -0.01340612 </v>
    <i name="Tr[quadrupol]">  -1351.97709628 </i>
    <i name="Echarged">      0.00000000 </i>
    <i name="Edipol_quadrupol">      0.00000000 </i>
    <i name="Eion">      0.00000000 </i>
   </dipole>
   <energy>
    <i name="e_fr_energy">    -62.39871766 </i>
    <i name="e_wo_entrp">    -62.35153369 </i>
    <i name="e_0_energy">    -62.37512568 </i>
   </energy>
  </scstep>
  <scstep>
   <time name="dav">   10.44   10.45</time>
   <time name="total">   11.38   11.44</time>
   <dipole>
    <v name="dipole">      0.00000000       0.00000000       0.14988593 </v>
    <i name="Tr[quadrupol]">  -1352.29073625 </i>
    <i name="Echarged">      0.00000000 </i>
    <i name="Edipol_quadrupol">      0.00000000 </i>
    <i name="Eion">      0.00000000 </i>
   </dipole>
   <energy>
    <i name="e_fr_energy">    -62.28567617 </i>
    <i name="e_wo_entrp">    -62.24331976 </i>
    <i name="e_0_energy">    -62.26449797 </i>
   </energy>
  </scstep>
  <scstep>
   <time name="dav">    9.66    9.67</time>
   <time name="total">   10.60   10.67</time>
   <dipole>
    <v name="dipole">      0.00000000       0.00000000       0.16051693 </v>
    <i name="Tr[quadrupol]">  -1352.54669938 </i>
    <i name="Echarged">      0.00000000 </i>
    <i name="Edipol_quadrupol">      0.00000000 </i>
    <i name="Eion">      0.00000000 </i>
   </dipole>
   <energy>
    <i name="e_fr_energy">    -62.31365880 </i>
    <i name="e_wo_entrp">    -62.26857277 </i>
    <i name="e_0_energy">    -62.29111579 </i>
   </energy>
  </scstep>
  <scstep>
   <time name="dav">   10.31   10.32</time>
   <time name="total">   11.25   11.47</time>
   <dipole>
    <v name="dipole">      0.00000000       0.00000000       0.10408239 </v>
    <i name="Tr[quadrupol]">  -1352.73987663 </i>
    <i name="Echarged">      0.00000000 </i>
    <i name="Edipol_quadrupol">      0.00000000 </i>
    <i name="Eion">      0.00000000 </i>
   </dipole>
   <energy>
    <i name="e_fr_energy">    -62.23620420 </i>
    <i name="e_wo_entrp">    -62.18259674 </i>
    <i name="e_0_energy">    -62.20940047 </i>
   </energy>
  </scstep>
  <scstep>
   <time name="dav">    9.81    9.82</time>
   <time name="total">   10.76   10.81</time>
   <dipole>
    <v name="dipole">      0.00000000       0.00000000       0.11587520 </v>
    <i name="Tr[quadrupol]">  -1352.73432785 </i>
    <i name="Echarged">      0.00000000 </i>
    <i name="Edipol_quadrupol">      0.00000000 </i>
    <i name="Eion">      0.00000000 </i>
   </dipole>
   <energy>
    <i name="e_fr_energy">    -62.23749136 </i>
    <i name="e_wo_entrp">    -62.19051759 </i>
    <i name="e_0_energy">    -62.21400448 </i>
   </energy>
  </scstep>
  <scstep>
   <time name="dav">   10.30   10.31</time>
   <time name="total">   11.24   11.27</time>
   <dipole>
    <v name="dipole">      0.00000000       0.00000000       0.11754205 </v>
    <i name="Tr[quadrupol]">  -1352.89337378 </i>
    <i name="Echarged">      0.00000000 </i>
    <i name="Edipol_quadrupol">      0.00000000 </i>
    <i name="Eion">      0.00000000 </i>
   </dipole>
   <energy>
    <i name="e_fr_energy">    -62.23440235 </i>
    <i name="e_wo_entrp">    -62.18510423 </i>
    <i name="e_0_energy">    -62.20975329 </i>
   </energy>
  </scstep>
  <scstep>
   <time name="dav">    9.85    9.86</time>
   <time name="total">   10.79   10.85</time>
   <dipole>
    <v name="dipole">      0.00000000       0.00000000       0.12245564 </v>
    <i name="Tr[quadrupol]">  -1352.98945181 </i>
    <i name="Echarged">      0.00000000 </i>
    <i name="Edipol_quadrupol">      0.00000000 </i>
    <i name="Eion">      0.00000000 </i>
   </dipole>
   <energy>
    <i name="e_fr_energy">    -62.22776881 </i>
    <i name="e_wo_entrp">    -62.17590758 </i>
    <i name="e_0_energy">    -62.20183819 </i>
   </energy>
  </scstep>
  <scstep>
   <time name="dav">   11.07   11.08</time>
   <time name="total">   12.01   12.05</time>
   <dipole>
    <v name="dipole">      0.00000000       0.00000000       0.12358083 </v>
    <i name="Tr[quadrupol]">  -1352.96410920 </i>
    <i name="Echarged">      0.00000000 </i>
    <i name="Edipol_quadrupol">      0.00000000 </i>
    <i name="Eion">      0.00000000 </i>
   </dipole>
   <energy>
    <i name="e_fr_energy">    -62.22815543 </i>
    <i name="e_wo_entrp">    -62.17595485 </i>
    <i name="e_0_energy">    -62.20205514 </i>
   </energy>
  </scstep>
  <scstep>
   <time name="dav">    9.42    9.44</time>
   <time name="total">   10.37   10.43</time>
   <dipole>
    <v name="dipole">      0.00000000       0.00000000       0.12312541 </v>
    <i name="Tr[quadrupol]">  -1352.99235433 </i>
    <i name="Echarged">      0.00000000 </i>
    <i name="Edipol_quadrupol">      0.00000000 </i>
    <i name="Eion">      0.00000000 </i>
   </dipole>
   <energy>
    <i name="e_fr_energy">    -62.22822393 </i>
    <i name="e_wo_entrp">    -62.17589272 </i>
    <i name="e_0_energy">    -62.20205832 </i>
   </energy>
  </scstep>
  <scstep>
   <time name="dav">    9.90    9.92</time>
   <time name="total">   10.85   10.94</time>
   <dipole>
    <v name="dipole">      0.00000000       0.00000000       0.12469862 </v>
    <i name="Tr[quadrupol]">  -1353.08909287 </i>
    <i name="Echarged">      0.00000000 </i>
    <i name="Edipol_quadrupol">      0.00000000 </i>
    <i name="Eion">      0.00000000 </i>
   </dipole>
   <energy>
    <i name="e_fr_energy">    -62.22784252 </i>
    <i name="e_wo_entrp">    -62.17527108 </i>
    <i name="e_0_energy">    -62.20155680 </i>
   </energy>
  </scstep>
  <scstep>
   <time name="dav">   10.81   10.82</time>
   <time name="total">   11.75   11.79</time>
   <dipole>
    <v name="dipole">      0.00000000       0.00000000       0.11472538 </v>
    <i name="Tr[quadrupol]">  -1353.41683361 </i>
    <i name="Echarged">      0.00000000 </i>
    <i name="Edipol_quadrupol">      0.00000000 </i>
    <i name="Eion">      0.00000000 </i>
   </dipole>
   <energy>
    <i name="e_fr_energy">    -62.22818000 </i>
    <i name="e_wo_entrp">    -62.17567991 </i>
    <i name="e_0_energy">    -62.20192995 </i>
   </energy>
  </scstep>
  <scstep>
   <time name="dav">    9.10    9.11</time>
   <time name="total">   10.04   10.10</time>
   <dipole>
    <v name="dipole">      0.00000000       0.00000000       0.12337762 </v>
    <i name="Tr[quadrupol]">  -1353.28837118 </i>
    <i name="Echarged">      0.00000000 </i>
    <i name="Edipol_quadrupol">      0.00000000 </i>
    <i name="Eion">      0.00000000 </i>
   </dipole>
   <energy>
    <i name="e_fr_energy">    -62.22736099 </i>
    <i name="e_wo_entrp">    -62.17562224 </i>
    <i name="e_0_energy">    -62.20149161 </i>
   </energy>
  </scstep>
  <scstep>
   <time name="dav">    8.40    8.41</time>
   <time name="total">    9.35    9.38</time>
   <dipole>
    <v name="dipole">      0.00000000       0.00000000       0.12455777 </v>
    <i name="Tr[quadrupol]">  -1353.24055028 </i>
    <i name="Echarged">      0.00000000 </i>
    <i name="Edipol_quadrupol">      0.00000000 </i>
    <i name="Eion">      0.00000000 </i>
   </dipole>
   <energy>
    <i name="e_fr_energy">    -62.22748577 </i>
    <i name="e_wo_entrp">    -62.17576072 </i>
    <i name="e_0_energy">    -62.20162325 </i>
   </energy>
  </scstep>
  <scstep>
   <time name="dav">    7.57    7.58</time>
   <time name="total">    8.51    8.56</time>
   <dipole>
    <v name="dipole">      0.00000000       0.00000000       0.12471612 </v>
    <i name="Tr[quadrupol]">  -1353.22524283 </i>
    <i name="Echarged">      0.00000000 </i>
    <i name="Edipol_quadrupol">      0.00000000 </i>
    <i name="Eion">      0.00000000 </i>
   </dipole>
   <energy>
    <i name="e_fr_energy">    -62.22756260 </i>
    <i name="e_wo_entrp">    -62.17577759 </i>
    <i name="e_0_energy">    -62.20167009 </i>
   </energy>
  </scstep>
  <scstep>
   <time name="dav">    8.37    8.38</time>
   <time name="total">    9.31    9.39</time>
   <dipole>
    <v name="dipole">      0.00000000       0.00000000       0.12392217 </v>
    <i name="Tr[quadrupol]">  -1353.26325751 </i>
    <i name="Echarged">      0.00000000 </i>
    <i name="Edipol_quadrupol">      0.00000000 </i>
    <i name="Eion">      0.00000000 </i>
   </dipole>
   <energy>
    <i name="e_fr_energy">    -62.22774415 </i>
    <i name="e_wo_entrp">    -62.17601361 </i>
    <i name="e_0_energy">    -62.20187888 </i>
   </energy>
  </scstep>
  <scstep>
   <time name="dav">    8.05    8.06</time>
   <time name="total">    9.00    9.02</time>
   <dipole>
    <v name="dipole">      0.00000000       0.00000000       0.12415870 </v>
    <i name="Tr[quadrupol]">  -1353.27488790 </i>
    <i name="Echarged">      0.00000000 </i>
    <i name="Edipol_quadrupol">      0.00000000 </i>
    <i name="Eion">      0.00000000 </i>
   </dipole>
   <energy>
    <i name="e_fr_energy">    -62.22781832 </i>
    <i name="e_wo_entrp">    -62.17614218 </i>
    <i name="e_0_energy">    -62.20198025 </i>
   </energy>
  </scstep>
  <scstep>
   <time name="dav">    6.76    6.77</time>
   <time name="total">    7.71    7.83</time>
   <dipole>
    <v name="dipole">      0.00000000       0.00000000       0.12444919 </v>
    <i name="Tr[quadrupol]">  -1353.29413967 </i>
    <i name="Echarged">      0.00000000 </i>
    <i name="Edipol_quadrupol">      0.00000000 </i>
    <i name="Eion">      0.00000000 </i>
   </dipole>
   <energy>
    <i name="e_fr_energy">    -62.22797610 </i>
    <i name="e_wo_entrp">    -62.17635988 </i>
    <i name="e_0_energy">    -62.20216799 </i>
   </energy>
  </scstep>
  <scstep>
   <time name="dav">    7.50    7.51</time>
   <time name="total">    8.45    8.54</time>
   <dipole>
    <v name="dipole">      0.00000000       0.00000000       0.12129203 </v>
    <i name="Tr[quadrupol]">  -1353.54849402 </i>
    <i name="Echarged">      0.00000000 </i>
    <i name="Edipol_quadrupol">      0.00000000 </i>
    <i name="Eion">      0.00000000 </i>
   </dipole>
   <energy>
    <i name="e_fr_energy">    -62.22808696 </i>
    <i name="e_wo_entrp">    -62.17631576 </i>
    <i name="e_0_energy">    -62.20220136 </i>
   </energy>
  </scstep>
  <scstep>
   <time name="dav">    6.81    6.81</time>
   <time name="total">    7.75    7.80</time>
   <dipole>
    <v name="dipole">      0.00000000       0.00000000       0.12336088 </v>
    <i name="Tr[quadrupol]">  -1353.45139356 </i>
    <i name="Echarged">      0.00000000 </i>
    <i name="Edipol_quadrupol">      0.00000000 </i>
    <i name="Eion">      0.00000000 </i>
   </dipole>
   <energy>
    <i name="e_fr_energy">    -62.22811911 </i>
    <i name="e_wo_entrp">    -62.17648044 </i>
    <i name="e_0_energy">    -62.20229977 </i>
   </energy>
  </scstep>
  <scstep>
   <time name="dav">    7.36    7.37</time>
   <time name="total">    8.30    8.33</time>
   <dipole>
    <v name="dipole">      0.00000000       0.00000000       0.12371115 </v>
    <i name="Tr[quadrupol]">  -1353.41935330 </i>
    <i name="Echarged">      0.00000000 </i>
    <i name="Edipol_quadrupol">      0.00000000 </i>
    <i name="Eion">      0.00000000 </i>
   </dipole>
   <energy>
    <i name="e_fr_energy">    -62.22814598 </i>
    <i name="e_wo_entrp">    -62.17651486 </i>
    <i name="e_0_energy">    -62.20233042 </i>
   </energy>
  </scstep>
  <scstep>
   <time name="dav">    6.62    6.63</time>
   <time name="total">    6.98    7.11</time>
   <dipole>
    <v name="dipole">      0.00000000       0.00000000       0.12365665 </v>
    <i name="Tr[quadrupol]">  -1353.40280865 </i>
    <i name="Echarged">      0.00000000 </i>
    <i name="Edipol_quadrupol">      0.00000000 </i>
    <i name="Eion">      0.00000000 </i>
   </dipole>
   <energy>
    <i name="alphaZ">    824.37451017 </i>
    <i name="ewald"> 282623.77790592 </i>
    <i name="hartreedc">-341245.49354418 </i>
    <i name="XCdc">   1722.79477089 </i>
    <i name="pawpsdc">  57980.04395615 </i>
    <i name="pawaedc"> -60449.64489767 </i>
    <i name="eentropy">     -0.05164971 </i>
    <i name="bandstr">  -7585.48409499 </i>
    <i name="atom">  66067.45489428 </i>
    <i name="e_fr_energy">    -62.22814913 </i>
    <i name="e_wo_entrp">    -62.17649941 </i>
    <i name="e_0_energy">    -62.20232427 </i>
   </energy>
  </scstep>
  <structure>
   <crystal>
    <varray name="basis" >
     <v>       5.01969481       0.00000000       0.00000000 </v>
     <v>       2.50984740       4.34718322       0.00000000 </v>
     <v>       0.00000000       0.00000000      26.20742226 </v>
    </varray>
    <i name="volume">    571.88613037 </i>
    <varray name="rec_basis" >
     <v>       0.19921530      -0.11501701       0.00000000 </v>
     <v>       0.00000000       0.23003401       0.00000000 </v>
     <v>       0.00000000       0.00000000       0.03815713 </v>
    </varray>
   </crystal>
   <varray name="positions" >
    <v>       0.00000000       0.00000000       0.00000000 </v>
    <v>       0.00000000       0.50000000       0.00000000 </v>
    <v>       0.50000000       0.00000000       0.00000000 </v>
    <v>       0.50000000       0.50000000       0.00000000 </v>
    <v>       0.16666667       0.16666667       0.07819471 </v>
    <v>       0.16666667       0.66666669       0.07819471 </v>
    <v>       0.66666669       0.16666667       0.07819471 </v>
    <v>       0.66666669       0.66666669       0.07819471 </v>
    <v>       0.33361860       0.33319071       0.15703898 </v>
    <v>       0.33361860       0.83319074       0.15703898 </v>
    <v>       0.83218972       0.33390517       0.15703578 </v>
    <v>       0.83218972       0.83390520       0.15703578 </v>
    <v>       0.99347096       0.00326452       0.23776036 </v>
    <v>       0.99347096       0.50326452       0.23776036 </v>
    <v>       0.51082144       0.99458928       0.23886979 </v>
    <v>       0.51082144       0.49458928       0.23886979 </v>
    <v>       0.31681801       0.34159101       0.28491588 </v>
   </varray>
  </structure>
  <varray name="forces" >
   <v>      -0.00160503       0.00092666      -0.16944194 </v>
   <v>      -0.01631249       0.00941802      -0.14675644 </v>
   <v>       0.00229363      -0.02162279      -0.15369439 </v>
   <v>       0.01987271       0.00882505      -0.15369439 </v>
   <v>      -0.00475803      -0.00421855       0.20898131 </v>
   <v>       0.00127436       0.00622986       0.20898131 </v>
   <v>       0.00494016      -0.00285220       0.19877514 </v>
   <v>      -0.00228623       0.00131996       0.13538180 </v>
   <v>      -0.01891969       0.01092329      -0.10343045 </v>
   <v>       0.02835424      -0.01637033       0.23584440 </v>
   <v>       0.04870618       0.04450498       0.07253687 </v>
   <v>      -0.01418935      -0.06443328       0.07253687 </v>
   <v>       0.46702978      -0.26963977       0.07327046 </v>
   <v>       0.17489410      -0.10097516       0.21083166 </v>
   <v>      -0.49111450       0.28086352       0.37723883 </v>
   <v>      -0.48879219       0.28488588       0.37723883 </v>
   <v>       0.29061235      -0.16778512      -1.44459990 </v>
  </varray>
  <varray name="stress" >
   <v>      -7.55313032      -1.08561456       0.68233778 </v>
   <v>      -1.08561456      -8.80669004      -0.39394790 </v>
   <v>       0.68233878      -0.39394848     -11.80935387 </v>
  </varray>
  <energy>
   <i name="e_fr_energy">    -68.27864997 </i>
   <i name="e_wo_entrp">    -68.25282511 </i>
   <i name="e_0_energy">     -0.05164971 </i>
  </energy>
  <time name="totalsc">  314.49  317.06</time>
 </calculation>
 <calculation>
  <scstep>
   <time name="dav">   10.78   10.79</time>
   <time name="total">   11.72   11.74</time>
   <dipole>
    <v name="dipole">      0.00000000       0.00000000       0.12263308 </v>
    <i name="Tr[quadrupol]">  -1361.02667170 </i>
    <i name="Echarged">      0.00000000 </i>
    <i name="Edipol_quadrupol">      0.00000000 </i>
    <i name="Eion">      0.00000000 </i>
   </dipole>
   <energy>
    <i name="alphaZ">    831.42200885 </i>
    <i name="ewald"> 282307.45150820 </i>
    <i name="hartreedc">-340926.49327919 </i>
    <i name="XCdc">   1723.03460968 </i>
    <i name="pawpsdc">  57980.27027449 </i>
    <i name="pawaedc"> -60449.89101934 </i>
    <i name="eentropy">     -0.04769957 </i>
    <i name="bandstr">  -7593.83882543 </i>
    <i name="atom">  66067.45489428 </i>
    <i name="e_fr_energy">    -60.63752803 </i>
    <i name="e_wo_entrp">    -60.58982847 </i>
    <i name="e_0_energy">    -60.61367825 </i>
   </energy>
  </scstep>
  <scstep>
   <time name="dav">    9.73    9.74</time>
   <time name="total">   10.67   10.75</time>
   <dipole>
    <v name="dipole">      0.00000000       0.00000000       0.10511061 </v>
    <i name="Tr[quadrupol]">  -1361.14961279 </i>
    <i name="Echarged">      0.00000000 </i>
    <i name="Edipol_quadrupol">      0.00000000 </i>
    <i name="Eion">      0.00000000 </i>
   </dipole>
   <energy>
    <i name="e_fr_energy">    -62.32635054 </i>
    <i name="e_wo_entrp">    -62.27520404 </i>
    <i name="e_0_energy">    -62.30077729 </i>
   </energy>
  </scstep>
  <scstep>
   <time name="dav">   10.63   10.65</time>
   <time name="total">   11.57   11.70</time>
   <dipole>
    <v name="dipole">      0.00000000       0.00000000       0.18369087 </v>
    <i name="Tr[quadrupol]">  -1361.27051281 </i>
    <i name="Echarged">      0.00000000 </i>
    <i name="Edipol_quadrupol">      0.00000000 </i>
    <i name="Eion">      0.00000000 </i>
   </dipole>
   <energy>
    <i name="e_fr_energy">    -62.50289837 </i>
    <i name="e_wo_entrp">    -62.46241746 </i>
    <i name="e_0_energy">    -62.48265791 </i>
   </energy>
  </scstep>
  <scstep>
   <time name="dav">   10.86   10.87</time>
   <time name="total">   11.80   12.02</time>
   <dipole>
    <v name="dipole">      0.00000000       0.00000000       0.05773653 </v>
    <i name="Tr[quadrupol]">  -1361.20573314 </i>
    <i name="Echarged">      0.00000000 </i>
    <i name="Edipol_quadrupol">      0.00000000 </i>
    <i name="Eion">      0.00000000 </i>
   </dipole>
   <energy>
    <i name="e_fr_energy">    -62.44548520 </i>
    <i name="e_wo_entrp">    -62.38902561 </i>
    <i name="e_0_energy">    -62.41725541 </i>
   </energy>
  </scstep>
  <scstep>
   <time name="dav">   12.24   12.25</time>
   <time name="total">   13.17   13.25</time>
   <dipole>
    <v name="dipole">      0.00000000       0.00000000       0.11014873 </v>
    <i name="Tr[quadrupol]">  -1361.25799165 </i>
    <i name="Echarged">      0.00000000 </i>
    <i name="Edipol_quadrupol">      0.00000000 </i>
    <i name="Eion">      0.00000000 </i>
   </dipole>
   <energy>
    <i name="e_fr_energy">    -62.33671180 </i>
    <i name="e_wo_entrp">    -62.28813660 </i>
    <i name="e_0_energy">    -62.31242420 </i>
   </energy>
  </scstep>
  <scstep>
   <time name="dav">    9.96    9.98</time>
   <time name="total">   10.91   10.99</time>
   <dipole>
    <v name="dipole">      0.00000000       0.00000000       0.11306515 </v>
    <i name="Tr[quadrupol]">  -1361.31376685 </i>
    <i name="Echarged">      0.00000000 </i>
    <i name="Edipol_quadrupol">      0.00000000 </i>
    <i name="Eion">      0.00000000 </i>
   </dipole>
   <energy>
    <i name="e_fr_energy">    -62.33450452 </i>
    <i name="e_wo_entrp">    -62.28631196 </i>
    <i name="e_0_energy">    -62.31040824 </i>
   </energy>
  </scstep>
  <scstep>
   <time name="dav">    9.57    9.59</time>
   <time name="total">   10.52   10.54</time>
   <dipole>
    <v name="dipole">      0.00000000       0.00000000       0.11369471 </v>
    <i name="Tr[quadrupol]">  -1361.31698316 </i>
    <i name="Echarged">      0.00000000 </i>
    <i name="Edipol_quadrupol">      0.00000000 </i>
    <i name="Eion">      0.00000000 </i>
   </dipole>
   <energy>
    <i name="e_fr_energy">    -62.33427358 </i>
    <i name="e_wo_entrp">    -62.28603248 </i>
    <i name="e_0_energy">    -62.31015303 </i>
   </energy>
  </scstep>
  <scstep>
   <time name="dav">    9.54    9.55</time>
   <time name="total">   10.48   10.62</time>
   <dipole>
    <v name="dipole">      0.00000000       0.00000000       0.11328630 </v>
    <i name="Tr[quadrupol]">  -1361.31517690 </i>
    <i name="Echarged">      0.00000000 </i>
    <i name="Edipol_quadrupol">      0.00000000 </i>
    <i name="Eion">      0.00000000 </i>
   </dipole>
   <energy>
    <i name="e_fr_energy">    -62.33368284 </i>
    <i name="e_wo_entrp">    -62.28514232 </i>
    <i name="e_0_energy">    -62.30941258 </i>
   </energy>
  </scstep>
  <scstep>
   <time name="dav">   11.19   11.20</time>
   <time name="total">   12.14   12.21</time>
   <dipole>
    <v name="dipole">      0.00000000       0.00000000       0.11174294 </v>
    <i name="Tr[quadrupol]">  -1361.28610629 </i>
    <i name="Echarged">      0.00000000 </i>
    <i name="Edipol_quadrupol">      0.00000000 </i>
    <i name="Eion">      0.00000000 </i>
   </dipole>
   <energy>
    <i name="e_fr_energy">    -62.33348261 </i>
    <i name="e_wo_entrp">    -62.28508232 </i>
    <i name="e_0_energy">    -62.30928246 </i>
   </energy>
  </scstep>
  <scstep>
   <time name="dav">    9.57    9.58</time>
   <time name="total">   10.51   10.63</time>
   <dipole>
    <v name="dipole">      0.00000000       0.00000000       0.11243197 </v>
    <i name="Tr[quadrupol]">  -1361.31472345 </i>
    <i name="Echarged">      0.00000000 </i>
    <i name="Edipol_quadrupol">      0.00000000 </i>
    <i name="Eion">      0.00000000 </i>
   </dipole>
   <energy>
    <i name="e_fr_energy">    -62.33337498 </i>
    <i name="e_wo_entrp">    -62.28498199 </i>
    <i name="e_0_energy">    -62.30917849 </i>
   </energy>
  </scstep>
  <scstep>
   <time name="dav">   10.64   10.66</time>
   <time name="total">   11.58   11.66</time>
   <dipole>
    <v name="dipole">      0.00000000       0.00000000       0.11334990 </v>
    <i name="Tr[quadrupol]">  -1361.31370587 </i>
    <i name="Echarged">      0.00000000 </i>
    <i name="Edipol_quadrupol">      0.00000000 </i>
    <i name="Eion">      0.00000000 </i>
   </dipole>
   <energy>
    <i name="e_fr_energy">    -62.33332817 </i>
    <i name="e_wo_entrp">    -62.28524757 </i>
    <i name="e_0_energy">    -62.30928787 </i>
   </energy>
  </scstep>
  <scstep>
   <time name="dav">    9.90    9.91</time>
   <time name="total">   10.85   10.92</time>
   <dipole>
    <v name="dipole">      0.00000000       0.00000000       0.11345125 </v>
    <i name="Tr[quadrupol]">  -1361.31813800 </i>
    <i name="Echarged">      0.00000000 </i>
    <i name="Edipol_quadrupol">      0.00000000 </i>
    <i name="Eion">      0.00000000 </i>
   </dipole>
   <energy>
    <i name="e_fr_energy">    -62.33335815 </i>
    <i name="e_wo_entrp">    -62.28529679 </i>
    <i name="e_0_energy">    -62.30932747 </i>
   </energy>
  </scstep>
  <scstep>
   <time name="dav">    7.76    7.77</time>
   <time name="total">    8.70    8.82</time>
   <dipole>
    <v name="dipole">      0.00000000       0.00000000       0.11252668 </v>
    <i name="Tr[quadrupol]">  -1361.31998478 </i>
    <i name="Echarged">      0.00000000 </i>
    <i name="Edipol_quadrupol">      0.00000000 </i>
    <i name="Eion">      0.00000000 </i>
   </dipole>
   <energy>
    <i name="e_fr_energy">    -62.33335337 </i>
    <i name="e_wo_entrp">    -62.28525562 </i>
    <i name="e_0_energy">    -62.30930449 </i>
   </energy>
  </scstep>
  <scstep>
   <time name="dav">    8.27    8.28</time>
   <time name="total">    8.63    8.70</time>
   <dipole>
    <v name="dipole">      0.00000000       0.00000000       0.11254085 </v>
    <i name="Tr[quadrupol]">  -1361.32159098 </i>
    <i name="Echarged">      0.00000000 </i>
    <i name="Edipol_quadrupol">      0.00000000 </i>
    <i name="Eion">      0.00000000 </i>
   </dipole>
   <energy>
    <i name="alphaZ">    839.32654622 </i>
    <i name="ewald"> 282307.45150820 </i>
    <i name="hartreedc">-340932.36779036 </i>
    <i name="XCdc">   1722.98382384 </i>
    <i name="pawpsdc">  58036.74689335 </i>
    <i name="pawaedc"> -60506.72975034 </i>
    <i name="eentropy">     -0.04809077 </i>
    <i name="bandstr">  -7597.15139715 </i>
    <i name="atom">  66067.45489428 </i>
    <i name="e_fr_energy">    -62.33336273 </i>
    <i name="e_wo_entrp">    -62.28527196 </i>
    <i name="e_0_energy">    -62.30931734 </i>
   </energy>
  </scstep>
  <structure>
   <crystal>
    <varray name="basis" >
     <v>       5.01969481       0.00000000       0.00000000 </v>
     <v>       2.50984740       4.34718322       0.00000000 </v>
     <v>       0.00000000       0.00000000      26.20742226 </v>
    </varray>
    <i name="volume">    571.88613037 </i>
    <varray name="rec_basis" >
     <v>       0.19921530      -0.11501701       0.00000000 </v>
     <v>       0.00000000       0.23003401       0.00000000 </v>
     <v>       0.00000000       0.00000000       0.03815713 </v>
    </varray>
   </crystal>
   <varray name="positions" >
    <v>       0.00000000       0.00000000       0.00000000 </v>
    <v>       0.00000000       0.50000000       0.00000000 </v>
    <v>       0.50000000       0.00000000       0.00000000 </v>
    <v>       0.50000000       0.50000000       0.00000000 </v>
    <v>       0.16666667       0.16666667       0.07819471 </v>
    <v>       0.16666667       0.66666669       0.07819471 </v>
    <v>       0.66666669       0.16666667       0.07819471 </v>
    <v>       0.66666669       0.66666669       0.07819471 </v>
    <v>       0.33337616       0.33331193       0.15684859 </v>
    <v>       0.33398194       0.83300907       0.15747313 </v>
    <v>       0.83241088       0.33439906       0.15716930 </v>
    <v>       0.83241088       0.83319015       0.15716930 </v>
    <v>       0.99945559       0.00027221       0.23789524 </v>
    <v>       0.99571209       0.50214395       0.23814846 </v>
    <v>       0.50454306       0.99770615       0.23956421 </v>
    <v>       0.50454306       0.49775079       0.23956421 </v>
    <v>       0.32054198       0.33972902       0.28225666 </v>
   </varray>
  </structure>
  <varray name="forces" >
   <v>      -0.00230037       0.00132812      -0.16496566 </v>
   <v>      -0.01232483       0.00711574      -0.14430464 </v>
   <v>      -0.00001125      -0.01610102      -0.14812930 </v>
   <v>       0.01393826       0.00806025      -0.14812930 </v>
   <v>      -0.01432142      -0.01637747       0.21967793 </v>
   <v>       0.00702260       0.02059145       0.21967793 </v>
   <v>       0.01631057      -0.00941691       0.20723977 </v>
   <v>      -0.01162443       0.00671137       0.15111317 </v>
   <v>       0.01045001      -0.00603332      -0.10679114 </v>
   <v>       0.03765578      -0.02174057       0.15910266 </v>
   <v>       0.00008452       0.02617523       0.11994590 </v>
   <v>      -0.02262616      -0.01316081       0.11994590 </v>
   <v>       0.12999873      -0.07505480       0.04475180 </v>
   <v>      -0.44533879       0.25711647      -0.17209086 </v>
   <v>      -0.14811175      -0.33035283      -0.04259389 </v>
   <v>       0.21203807       0.29344495      -0.04259389 </v>
   <v>       0.22916047      -0.13230586      -0.27185637 </v>
  </varray>
  <varray name="stress" >
   <v>      -5.99696633      -0.83709028       0.62749990 </v>
   <v>      -0.83709028      -6.96355493      -0.36228723 </v>
   <v>       0.62750123      -0.36228800      -9.50522149 </v>
  </varray>
  <energy>
   <i name="e_fr_energy">    -68.37853590 </i>
   <i name="e_wo_entrp">    -68.35449052 </i>
   <i name="e_0_energy">     -0.04809077 </i>
  </energy>
  <time name="totalsc">  160.53  162.15</time>
 </calculation>
 <calculation>
  <scstep>
   <time name="dav">   10.71   10.72</time>
   <time name="total">   11.65   11.67</time>
   <dipole>
    <v name="dipole">      0.00000000       0.00000000       0.11266962 </v>
    <i name="Tr[quadrupol]">  -1362.22652744 </i>
    <i name="Echarged">      0.00000000 </i>
    <i name="Edipol_quadrupol">      0.00000000 </i>
    <i name="Eion">      0.00000000 </i>
   </dipole>
   <energy>
    <i name="alphaZ">    840.04805272 </i>
    <i name="ewald"> 282270.71556216 </i>
    <i name="hartreedc">-340895.26810566 </i>
    <i name="XCdc">   1723.01413242 </i>
    <i name="pawpsdc">  58037.05178369 </i>
    <i name="pawaedc"> -60507.03063349 </i>
    <i name="eentropy">     -0.04773115 </i>
    <i name="bandstr">  -7598.25103241 </i>
    <i name="atom">  66067.45489428 </i>
    <i name="e_fr_energy">    -62.31307744 </i>
    <i name="e_wo_entrp">    -62.26534629 </i>
    <i name="e_0_energy">    -62.28921186 </i>
   </energy>
  </scstep>
  <scstep>
   <time name="dav">    9.42    9.43</time>
   <time name="total">   10.36   10.51</time>
   <dipole>
    <v name="dipole">      0.00000000       0.00000000       0.11129211 </v>
    <i name="Tr[quadrupol]">  -1362.24356714 </i>
    <i name="Echarged">      0.00000000 </i>
    <i name="Edipol_quadrupol">      0.00000000 </i>
    <i name="Eion">      0.00000000 </i>
   </dipole>
   <energy>
    <i name="e_fr_energy">    -62.33483981 </i>
    <i name="e_wo_entrp">    -62.28691449 </i>
    <i name="e_0_energy">    -62.31087715 </i>
   </energy>
  </scstep>
  <scstep>
   <time name="dav">    9.73    9.74</time>
   <time name="total">   10.67   10.76</time>
   <dipole>
    <v name="dipole">      0.00000000       0.00000000       0.11646006 </v>
    <i name="Tr[quadrupol]">  -1362.28331119 </i>
    <i name="Echarged">      0.00000000 </i>
    <i name="Edipol_quadrupol">      0.00000000 </i>
    <i name="Eion">      0.00000000 </i>
   </dipole>
   <energy>
    <i name="e_fr_energy">    -62.33605096 </i>
    <i name="e_wo_entrp">    -62.28914118 </i>
    <i name="e_0_energy">    -62.31259607 </i>
   </energy>
  </scstep>
  <scstep>
   <time name="dav">    9.78    9.79</time>
   <time name="total">   10.73   11.01</time>
   <dipole>
    <v name="dipole">      0.00000000       0.00000000       0.10711557 </v>
    <i name="Tr[quadrupol]">  -1362.26002557 </i>
    <i name="Echarged">      0.00000000 </i>
    <i name="Edipol_quadrupol">      0.00000000 </i>
    <i name="Eion">      0.00000000 </i>
   </dipole>
   <energy>
    <i name="e_fr_energy">    -62.33596185 </i>
    <i name="e_wo_entrp">    -62.28744160 </i>
    <i name="e_0_energy">    -62.31170172 </i>
   </energy>
  </scstep>
  <scstep>
   <time name="dav">   12.07   12.08</time>
   <time name="total">   13.01   13.07</time>
   <dipole>
    <v name="dipole">      0.00000000       0.00000000       0.11174991 </v>
    <i name="Tr[quadrupol]">  -1362.28246023 </i>
    <i name="Echarged">      0.00000000 </i>
    <i name="Edipol_quadrupol">      0.00000000 </i>
    <i name="Eion">      0.00000000 </i>
   </dipole>
   <energy>
    <i name="e_fr_energy">    -62.33519533 </i>
    <i name="e_wo_entrp">    -62.28742709 </i>
    <i name="e_0_energy">    -62.31131121 </i>
   </energy>
  </scstep>
  <scstep>
   <time name="dav">   10.32   10.34</time>
   <time name="total">   11.27   11.33</time>
   <dipole>
    <v name="dipole">      0.00000000       0.00000000       0.11133229 </v>
    <i name="Tr[quadrupol]">  -1362.29952674 </i>
    <i name="Echarged">      0.00000000 </i>
    <i name="Edipol_quadrupol">      0.00000000 </i>
    <i name="Eion">      0.00000000 </i>
   </dipole>
   <energy>
    <i name="e_fr_energy">    -62.33517649 </i>
    <i name="e_wo_entrp">    -62.28743692 </i>
    <i name="e_0_energy">    -62.31130671 </i>
   </energy>
  </scstep>
  <scstep>
   <time name="dav">    9.06    9.07</time>
   <time name="total">   10.01   10.14</time>
   <dipole>
    <v name="dipole">      0.00000000       0.00000000       0.11098189 </v>
    <i name="Tr[quadrupol]">  -1362.30377078 </i>
    <i name="Echarged">      0.00000000 </i>
    <i name="Edipol_quadrupol">      0.00000000 </i>
    <i name="Eion">      0.00000000 </i>
   </dipole>
   <energy>
    <i name="e_fr_energy">    -62.33519353 </i>
    <i name="e_wo_entrp">    -62.28733510 </i>
    <i name="e_0_energy">    -62.31126431 </i>
   </energy>
  </scstep>
  <scstep>
   <time name="dav">    7.59    7.60</time>
   <time name="total">    7.94    7.99</time>
   <dipole>
    <v name="dipole">      0.00000000       0.00000000       0.11101561 </v>
    <i name="Tr[quadrupol]">  -1362.30495003 </i>
    <i name="Echarged">      0.00000000 </i>
    <i name="Edipol_quadrupol">      0.00000000 </i>
    <i name="Eion">      0.00000000 </i>
   </dipole>
   <energy>
    <i name="alphaZ">    842.75066300 </i>
    <i name="ewald"> 282270.71556216 </i>
    <i name="hartreedc">-340896.11978441 </i>
    <i name="XCdc">   1723.00673870 </i>
    <i name="pawpsdc">  58046.83449849 </i>
    <i name="pawaedc"> -60516.84402952 </i>
    <i name="eentropy">     -0.04779689 </i>
    <i name="bandstr">  -7600.08594344 </i>
    <i name="atom">  66067.45489428 </i>
    <i name="e_fr_energy">    -62.33519762 </i>
    <i name="e_wo_entrp">    -62.28740073 </i>
    <i name="e_0_energy">    -62.31129918 </i>
   </energy>
  </scstep>
  <structure>
   <crystal>
    <varray name="basis" >
     <v>       5.01969481       0.00000000       0.00000000 </v>
     <v>       2.50984740       4.34718322       0.00000000 </v>
     <v>       0.00000000       0.00000000      26.20742226 </v>
    </varray>
    <i name="volume">    571.88613037 </i>
    <varray name="rec_basis" >
     <v>       0.19921530      -0.11501701       0.00000000 </v>
     <v>       0.00000000       0.23003401       0.00000000 </v>
     <v>       0.00000000       0.00000000       0.03815713 </v>
    </varray>
   </crystal>
   <varray name="positions" >
    <v>       0.00000000       0.00000000       0.00000000 </v>
    <v>       0.00000000       0.50000000       0.00000000 </v>
    <v>       0.50000000       0.00000000       0.00000000 </v>
    <v>       0.50000000       0.50000000       0.00000000 </v>
    <v>       0.16666667       0.16666667       0.07819471 </v>
    <v>       0.16666667       0.66666669       0.07819471 </v>
    <v>       0.66666669       0.16666667       0.07819471 </v>
    <v>       0.66666669       0.66666669       0.07819471 </v>
    <v>       0.33334761       0.33332621       0.15682616 </v>
    <v>       0.33402473       0.83298768       0.15752426 </v>
    <v>       0.83243692       0.33445723       0.15718503 </v>
    <v>       0.83243692       0.83310593       0.15718503 </v>
    <v>       0.00016046      -0.00008023       0.23791112 </v>
    <v>       0.99597605       0.50201197       0.23819417 </v>
    <v>       0.50380359       0.99807326       0.23964600 </v>
    <v>       0.50380359       0.49812315       0.23964600 </v>
    <v>       0.32098060       0.33950972       0.28194345 </v>
   </varray>
  </structure>
  <varray name="forces" >
   <v>      -0.00267777       0.00154601      -0.16497796 </v>
   <v>      -0.01213361       0.00700535      -0.14431201 </v>
   <v>      -0.00060855      -0.01519911      -0.14775384 </v>
   <v>       0.01285854       0.00812657      -0.14775384 </v>
   <v>      -0.01545001      -0.01723819       0.22039946 </v>
   <v>       0.00720370       0.02199920       0.22039946 </v>
   <v>       0.01692664      -0.00977260       0.20787991 </v>
   <v>      -0.01272220       0.00734516       0.15197520 </v>
   <v>       0.01289634      -0.00744570      -0.10877243 </v>
   <v>       0.03857933      -0.02227379       0.15185970 </v>
   <v>      -0.00510140       0.02448672       0.12348101 </v>
   <v>      -0.02375682      -0.00782542       0.12348101 </v>
   <v>       0.09702965      -0.05602009       0.04379192 </v>
   <v>      -0.51971495       0.30005757      -0.22003544 </v>
   <v>      -0.11186554      -0.41560109      -0.09591515 </v>
   <v>       0.30398833       0.30467895      -0.09591515 </v>
   <v>       0.21454832      -0.12386953      -0.11783187 </v>
  </varray>
  <varray name="stress" >
   <v>      -5.32402674      -0.81224604       0.59198422 </v>
   <v>      -0.81224604      -6.26192768      -0.34178225 </v>
   <v>       0.59198506      -0.34178273      -8.94759969 </v>
  </varray>
  <energy>
   <i name="e_fr_energy">    -68.37977139 </i>
   <i name="e_wo_entrp">    -68.35587295 </i>
   <i name="e_0_energy">     -0.04779689 </i>
  </energy>
  <time name="totalsc">   92.94   93.93</time>
 </calculation>
 <calculation>
  <scstep>
   <time name="dav">   11.48   11.50</time>
   <time name="total">   12.43   12.45</time>
   <dipole>
    <v name="dipole">      0.00000000       0.00000000       0.11118884 </v>
    <i name="Tr[quadrupol]">  -1361.69993968 </i>
    <i name="Echarged">      0.00000000 </i>
    <i name="Edipol_quadrupol">      0.00000000 </i>
    <i name="Eion">      0.00000000 </i>
   </dipole>
   <energy>
    <i name="alphaZ">    842.76331335 </i>
    <i name="ewald"> 282325.15798827 </i>
    <i name="hartreedc">-340950.02139768 </i>
    <i name="XCdc">   1723.03453637 </i>
    <i name="pawpsdc">  58046.89804081 </i>
    <i name="pawaedc"> -60516.91370058 </i>
    <i name="eentropy">     -0.04740861 </i>
    <i name="bandstr">  -7599.68199154 </i>
    <i name="atom">  66067.45489428 </i>
    <i name="e_fr_energy">    -61.35572533 </i>
    <i name="e_wo_entrp">    -61.30831671 </i>
    <i name="e_0_energy">    -61.33202102 </i>
   </energy>
  </scstep>
  <scstep>
   <time name="dav">    9.67    9.69</time>
   <time name="total">   10.62   10.68</time>
   <dipole>
    <v name="dipole">      0.00000000       0.00000000       0.10247085 </v>
    <i name="Tr[quadrupol]">  -1361.68019849 </i>
    <i name="Echarged">      0.00000000 </i>
    <i name="Edipol_quadrupol">      0.00000000 </i>
    <i name="Eion">      0.00000000 </i>
   </dipole>
   <energy>
    <i name="e_fr_energy">    -62.34102593 </i>
    <i name="e_wo_entrp">    -62.29224240 </i>
    <i name="e_0_energy">    -62.31663416 </i>
   </energy>
  </scstep>
  <scstep>
   <time name="dav">   12.89   12.90</time>
   <time name="total">   13.83   13.87</time>
   <dipole>
    <v name="dipole">      0.00000000       0.00000000       0.13213230 </v>
    <i name="Tr[quadrupol]">  -1361.75413903 </i>
    <i name="Echarged">      0.00000000 </i>
    <i name="Edipol_quadrupol">      0.00000000 </i>
    <i name="Eion">      0.00000000 </i>
   </dipole>
   <energy>
    <i name="e_fr_energy">    -62.38492779 </i>
    <i name="e_wo_entrp">    -62.34041827 </i>
    <i name="e_0_energy">    -62.36267303 </i>
   </energy>
  </scstep>
  <scstep>
   <time name="dav">   10.01   10.02</time>
   <time name="total">   10.95   10.99</time>
   <dipole>
    <v name="dipole">      0.00000000       0.00000000       0.09379284 </v>
    <i name="Tr[quadrupol]">  -1361.68818710 </i>
    <i name="Echarged">      0.00000000 </i>
    <i name="Edipol_quadrupol">      0.00000000 </i>
    <i name="Eion">      0.00000000 </i>
   </dipole>
   <energy>
    <i name="e_fr_energy">    -62.37379001 </i>
    <i name="e_wo_entrp">    -62.32303696 </i>
    <i name="e_0_energy">    -62.34841349 </i>
   </energy>
  </scstep>
  <scstep>
   <time name="dav">   10.10   10.11</time>
   <time name="total">   11.04   11.15</time>
   <dipole>
    <v name="dipole">      0.00000000       0.00000000       0.11283363 </v>
    <i name="Tr[quadrupol]">  -1361.68805114 </i>
    <i name="Echarged">      0.00000000 </i>
    <i name="Edipol_quadrupol">      0.00000000 </i>
    <i name="Eion">      0.00000000 </i>
   </dipole>
   <energy>
    <i name="e_fr_energy">    -62.36515613 </i>
    <i name="e_wo_entrp">    -62.31799559 </i>
    <i name="e_0_energy">    -62.34157586 </i>
   </energy>
  </scstep>
  <scstep>
   <time name="dav">    9.77    9.79</time>
   <time name="total">   10.72   10.80</time>
   <dipole>
    <v name="dipole">      0.00000000       0.00000000       0.11027983 </v>
    <i name="Tr[quadrupol]">  -1361.69043616 </i>
    <i name="Echarged">      0.00000000 </i>
    <i name="Edipol_quadrupol">      0.00000000 </i>
    <i name="Eion">      0.00000000 </i>
   </dipole>
   <energy>
    <i name="e_fr_energy">    -62.36470827 </i>
    <i name="e_wo_entrp">    -62.31703214 </i>
    <i name="e_0_energy">    -62.34087021 </i>
   </energy>
  </scstep>
  <scstep>
   <time name="dav">   10.63   10.65</time>
   <time name="total">   11.58   11.66</time>
   <dipole>
    <v name="dipole">      0.00000000       0.00000000       0.10670901 </v>
    <i name="Tr[quadrupol]">  -1361.68692738 </i>
    <i name="Echarged">      0.00000000 </i>
    <i name="Edipol_quadrupol">      0.00000000 </i>
    <i name="Eion">      0.00000000 </i>
   </dipole>
   <energy>
    <i name="e_fr_energy">    -62.36432228 </i>
    <i name="e_wo_entrp">    -62.31610088 </i>
    <i name="e_0_energy">    -62.34021158 </i>
   </energy>
  </scstep>
  <scstep>
   <time name="dav">   10.47   10.49</time>
   <time name="total">   11.42   11.52</time>
   <dipole>
    <v name="dipole">      0.00000000       0.00000000       0.10883553 </v>
    <i name="Tr[quadrupol]">  -1361.68713296 </i>
    <i name="Echarged">      0.00000000 </i>
    <i name="Edipol_quadrupol">      0.00000000 </i>
    <i name="Eion">      0.00000000 </i>
   </dipole>
   <energy>
    <i name="e_fr_energy">    -62.36378308 </i>
    <i name="e_wo_entrp">    -62.31582479 </i>
    <i name="e_0_energy">    -62.33980393 </i>
   </energy>
  </scstep>
  <scstep>
   <time name="dav">   10.56   10.57</time>
   <time name="total">   11.50   11.57</time>
   <dipole>
    <v name="dipole">      0.00000000       0.00000000       0.10904165 </v>
    <i name="Tr[quadrupol]">  -1361.65427194 </i>
    <i name="Echarged">      0.00000000 </i>
    <i name="Edipol_quadrupol">      0.00000000 </i>
    <i name="Eion">      0.00000000 </i>
   </dipole>
   <energy>
    <i name="e_fr_energy">    -62.36379715 </i>
    <i name="e_wo_entrp">    -62.31597593 </i>
    <i name="e_0_energy">    -62.33988654 </i>
   </energy>
  </scstep>
  <scstep>
   <time name="dav">    9.05    9.06</time>
   <time name="total">    9.99   10.02</time>
   <dipole>
    <v name="dipole">      0.00000000       0.00000000       0.10867502 </v>
    <i name="Tr[quadrupol]">  -1361.72015245 </i>
    <i name="Echarged">      0.00000000 </i>
    <i name="Edipol_quadrupol">      0.00000000 </i>
    <i name="Eion">      0.00000000 </i>
   </dipole>
   <energy>
    <i name="e_fr_energy">    -62.36381178 </i>
    <i name="e_wo_entrp">    -62.31592316 </i>
    <i name="e_0_energy">    -62.33986747 </i>
   </energy>
  </scstep>
  <scstep>
   <time name="dav">    8.10    8.11</time>
   <time name="total">    8.45    8.52</time>
   <dipole>
    <v name="dipole">      0.00000000       0.00000000       0.10821342 </v>
    <i name="Tr[quadrupol]">  -1361.71896935 </i>
    <i name="Echarged">      0.00000000 </i>
    <i name="Edipol_quadrupol">      0.00000000 </i>
    <i name="Eion">      0.00000000 </i>
   </dipole>
   <energy>
    <i name="alphaZ">    842.47094850 </i>
    <i name="ewald"> 282325.15798827 </i>
    <i name="hartreedc">-340952.37755391 </i>
    <i name="XCdc">   1723.03059196 </i>
    <i name="pawpsdc">  58055.06739883 </i>
    <i name="pawaedc"> -60525.07312033 </i>
    <i name="eentropy">     -0.04790604 </i>
    <i name="bandstr">  -7598.04705585 </i>
    <i name="atom">  66067.45489428 </i>
    <i name="e_fr_energy">    -62.36381428 </i>
    <i name="e_wo_entrp">    -62.31590824 </i>
    <i name="e_0_energy">    -62.33986126 </i>
   </energy>
  </scstep>
  <structure>
   <crystal>
    <varray name="basis" >
     <v>       5.01969481       0.00000000       0.00000000 </v>
     <v>       2.50984740       4.34718322       0.00000000 </v>
     <v>       0.00000000       0.00000000      26.20742226 </v>
    </varray>
    <i name="volume">    571.88613037 </i>
    <varray name="rec_basis" >
     <v>       0.19921530      -0.11501701       0.00000000 </v>
     <v>       0.00000000       0.23003401       0.00000000 </v>
     <v>       0.00000000       0.00000000       0.03815713 </v>
    </varray>
   </crystal>
   <varray name="positions" >
    <v>       0.00000000       0.00000000       0.00000000 </v>
    <v>       0.00000000       0.50000000       0.00000000 </v>
    <v>       0.50000000       0.00000000       0.00000000 </v>
    <v>       0.50000000       0.50000000       0.00000000 </v>
    <v>       0.16666667       0.16666667       0.07819471 </v>
    <v>       0.16666667       0.66666669       0.07819471 </v>
    <v>       0.66666669       0.16666667       0.07819471 </v>
    <v>       0.66666669       0.66666669       0.07819471 </v>
    <v>       0.33345219       0.33327392       0.15657052 </v>
    <v>       0.33462750       0.83268629       0.15792600 </v>
    <v>       0.83230656       0.33486690       0.15745325 </v>
    <v>       0.83230656       0.83282663       0.15745325 </v>
    <v>       0.00302684      -0.00151342       0.23802955 </v>
    <v>       0.98975625       0.50512187       0.23788294 </v>
    <v>       0.50339158       0.99418254       0.23965021 </v>
    <v>       0.50339158       0.50242588       0.23965021 </v>
    <v>       0.32478634       0.33760684       0.28101328 </v>
   </varray>
  </structure>
  <varray name="forces" >
   <v>      -0.00231302       0.00133542      -0.16699208 </v>
   <v>      -0.01035938       0.00598099      -0.14516064 </v>
   <v>      -0.00170033      -0.01321468      -0.14700505 </v>
   <v>       0.01059408       0.00807987      -0.14700505 </v>
   <v>      -0.02931744      -0.02767211       0.23625321 </v>
   <v>       0.00930603       0.03922570       0.23625321 </v>
   <v>       0.03210170      -0.01853393       0.21963012 </v>
   <v>      -0.01489561       0.00859999       0.17762881 </v>
   <v>       0.01289418      -0.00744446      -0.04130773 </v>
   <v>       0.00537705      -0.00310444       0.03069251 </v>
   <v>      -0.02243693      -0.02784980       0.06366817 </v>
   <v>       0.01290017       0.03335585       0.06366817 </v>
   <v>      -0.06261084       0.03614839       0.06026079 </v>
   <v>      -0.06636478       0.03831572      -0.01734872 </v>
   <v>       0.01180238      -0.14096920      -0.12967300 </v>
   <v>       0.12798410       0.06026344      -0.12967300 </v>
   <v>      -0.01296136       0.00748324      -0.16388973 </v>
  </varray>
  <varray name="stress" >
   <v>      -5.69082432      -0.22264140      -0.02588209 </v>
   <v>      -0.22264140      -5.94790846       0.01494303 </v>
   <v>      -0.02588243       0.01494323      -9.01950831 </v>
  </varray>
  <energy>
   <i name="e_fr_energy">    -68.40907451 </i>
   <i name="e_wo_entrp">    -68.38512148 </i>
   <i name="e_0_energy">     -0.04790604 </i>
  </energy>
  <time name="totalsc">  129.81  130.81</time>
 </calculation>
 <calculation>
  <scstep>
   <time name="dav">   11.73   11.74</time>
   <time name="total">   12.67   12.69</time>
   <dipole>
    <v name="dipole">      0.00000000       0.00000000       0.10822694 </v>
    <i name="Tr[quadrupol]">  -1361.09350685 </i>
    <i name="Echarged">      0.00000000 </i>
    <i name="Edipol_quadrupol">      0.00000000 </i>
    <i name="Eion">      0.00000000 </i>
   </dipole>
   <energy>
    <i name="alphaZ">    843.84708545 </i>
    <i name="ewald"> 282342.74603819 </i>
    <i name="hartreedc">-340969.87761839 </i>
    <i name="XCdc">   1723.04000740 </i>
    <i name="pawpsdc">  58046.00385308 </i>
    <i name="pawaedc"> -60516.03334782 </i>
    <i name="eentropy">     -0.04789938 </i>
    <i name="bandstr">  -7599.40897001 </i>
    <i name="atom">  66067.45489428 </i>
    <i name="e_fr_energy">    -62.27595720 </i>
    <i name="e_wo_entrp">    -62.22805782 </i>
    <i name="e_0_energy">    -62.25200751 </i>
   </energy>
  </scstep>
  <scstep>
   <time name="dav">    9.47    9.48</time>
   <time name="total">   10.41   10.46</time>
   <dipole>
    <v name="dipole">      0.00000000       0.00000000       0.10743896 </v>
    <i name="Tr[quadrupol]">  -1361.04679118 </i>
    <i name="Echarged">      0.00000000 </i>
    <i name="Edipol_quadrupol">      0.00000000 </i>
    <i name="Eion">      0.00000000 </i>
   </dipole>
   <energy>
    <i name="e_fr_energy">    -62.36326762 </i>
    <i name="e_wo_entrp">    -62.31546043 </i>
    <i name="e_0_energy">    -62.33936403 </i>
   </energy>
  </scstep>
  <scstep>
   <time name="dav">   10.74   10.76</time>
   <time name="total">   11.69   11.74</time>
   <dipole>
    <v name="dipole">      0.00000000       0.00000000       0.10670424 </v>
    <i name="Tr[quadrupol]">  -1361.08602461 </i>
    <i name="Echarged">      0.00000000 </i>
    <i name="Edipol_quadrupol">      0.00000000 </i>
    <i name="Eion">      0.00000000 </i>
   </dipole>
   <energy>
    <i name="e_fr_energy">    -62.36555956 </i>
    <i name="e_wo_entrp">    -62.31728095 </i>
    <i name="e_0_energy">    -62.34142026 </i>
   </energy>
  </scstep>
  <scstep>
   <time name="dav">    9.76    9.78</time>
   <time name="total">   10.70   10.77</time>
   <dipole>
    <v name="dipole">      0.00000000       0.00000000       0.11020036 </v>
    <i name="Tr[quadrupol]">  -1361.11563572 </i>
    <i name="Echarged">      0.00000000 </i>
    <i name="Edipol_quadrupol">      0.00000000 </i>
    <i name="Eion">      0.00000000 </i>
   </dipole>
   <energy>
    <i name="e_fr_energy">    -62.36566203 </i>
    <i name="e_wo_entrp">    -62.31818341 </i>
    <i name="e_0_energy">    -62.34192272 </i>
   </energy>
  </scstep>
  <scstep>
   <time name="dav">    9.31    9.33</time>
   <time name="total">   10.25   10.31</time>
   <dipole>
    <v name="dipole">      0.00000000       0.00000000       0.10638652 </v>
    <i name="Tr[quadrupol]">  -1361.10929950 </i>
    <i name="Echarged">      0.00000000 </i>
    <i name="Edipol_quadrupol">      0.00000000 </i>
    <i name="Eion">      0.00000000 </i>
   </dipole>
   <energy>
    <i name="e_fr_energy">    -62.36543895 </i>
    <i name="e_wo_entrp">    -62.31729163 </i>
    <i name="e_0_energy">    -62.34136529 </i>
   </energy>
  </scstep>
  <scstep>
   <time name="dav">   10.27   10.29</time>
   <time name="total">   11.22   11.28</time>
   <dipole>
    <v name="dipole">      0.00000000       0.00000000       0.10768599 </v>
    <i name="Tr[quadrupol]">  -1361.12856156 </i>
    <i name="Echarged">      0.00000000 </i>
    <i name="Edipol_quadrupol">      0.00000000 </i>
    <i name="Eion">      0.00000000 </i>
   </dipole>
   <energy>
    <i name="e_fr_energy">    -62.36533244 </i>
    <i name="e_wo_entrp">    -62.31737129 </i>
    <i name="e_0_energy">    -62.34135186 </i>
   </energy>
  </scstep>
  <scstep>
   <time name="dav">    9.71    9.72</time>
   <time name="total">   10.65   10.71</time>
   <dipole>
    <v name="dipole">      0.00000000       0.00000000       0.10666154 </v>
    <i name="Tr[quadrupol]">  -1361.04937518 </i>
    <i name="Echarged">      0.00000000 </i>
    <i name="Edipol_quadrupol">      0.00000000 </i>
    <i name="Eion">      0.00000000 </i>
   </dipole>
   <energy>
    <i name="e_fr_energy">    -62.36530989 </i>
    <i name="e_wo_entrp">    -62.31730066 </i>
    <i name="e_0_energy">    -62.34130528 </i>
   </energy>
  </scstep>
  <scstep>
   <time name="dav">   10.36   10.37</time>
   <time name="total">   11.30   11.34</time>
   <dipole>
    <v name="dipole">      0.00000000       0.00000000       0.10755415 </v>
    <i name="Tr[quadrupol]">  -1361.03697566 </i>
    <i name="Echarged">      0.00000000 </i>
    <i name="Edipol_quadrupol">      0.00000000 </i>
    <i name="Eion">      0.00000000 </i>
   </dipole>
   <energy>
    <i name="e_fr_energy">    -62.36530874 </i>
    <i name="e_wo_entrp">    -62.31734368 </i>
    <i name="e_0_energy">    -62.34132621 </i>
   </energy>
  </scstep>
  <scstep>
   <time name="dav">    8.33    8.34</time>
   <time name="total">    8.68    8.75</time>
   <dipole>
    <v name="dipole">      0.00000000       0.00000000       0.10762239 </v>
    <i name="Tr[quadrupol]">  -1361.03632299 </i>
    <i name="Echarged">      0.00000000 </i>
    <i name="Edipol_quadrupol">      0.00000000 </i>
    <i name="Eion">      0.00000000 </i>
   </dipole>
   <energy>
    <i name="alphaZ">    841.04315609 </i>
    <i name="ewald"> 282342.74603819 </i>
    <i name="hartreedc">-340970.56938025 </i>
    <i name="XCdc">   1723.03881321 </i>
    <i name="pawpsdc">  58049.74013066 </i>
    <i name="pawaedc"> -60519.76388931 </i>
    <i name="eentropy">     -0.04792774 </i>
    <i name="bandstr">  -7596.00714685 </i>
    <i name="atom">  66067.45489428 </i>
    <i name="e_fr_energy">    -62.36531171 </i>
    <i name="e_wo_entrp">    -62.31738397 </i>
    <i name="e_0_energy">    -62.34134784 </i>
   </energy>
  </scstep>
  <structure>
   <crystal>
    <varray name="basis" >
     <v>       5.01969481       0.00000000       0.00000000 </v>
     <v>       2.50984740       4.34718322       0.00000000 </v>
     <v>       0.00000000       0.00000000      26.20742226 </v>
    </varray>
    <i name="volume">    571.88613037 </i>
    <varray name="rec_basis" >
     <v>       0.19921530      -0.11501701       0.00000000 </v>
     <v>       0.00000000       0.23003401       0.00000000 </v>
     <v>       0.00000000       0.00000000       0.03815713 </v>
    </varray>
   </crystal>
   <varray name="positions" >
    <v>       0.00000000       0.00000000       0.00000000 </v>
    <v>       0.00000000       0.50000000       0.00000000 </v>
    <v>       0.50000000       0.00000000       0.00000000 </v>
    <v>       0.50000000       0.50000000       0.00000000 </v>
    <v>       0.16666667       0.16666667       0.07819471 </v>
    <v>       0.16666667       0.66666669       0.07819471 </v>
    <v>       0.66666669       0.16666667       0.07819471 </v>
    <v>       0.66666669       0.66666669       0.07819471 </v>
    <v>       0.33348414       0.33325794       0.15649242 </v>
    <v>       0.33481163       0.83259423       0.15804873 </v>
    <v>       0.83226674       0.33499204       0.15753518 </v>
    <v>       0.83226674       0.83274131       0.15753518 </v>
    <v>       0.00390245      -0.00195123       0.23806573 </v>
    <v>       0.98785625       0.50607188       0.23778787 </v>
    <v>       0.50326572       0.99299401       0.23965150 </v>
    <v>       0.50326572       0.50374026       0.23965150 </v>
    <v>       0.32594891       0.33702556       0.28072913 </v>
   </varray>
  </structure>
  <varray name="forces" >
   <v>      -0.00223953       0.00129299      -0.16734381 </v>
   <v>      -0.00987142       0.00569927      -0.14509893 </v>
   <v>      -0.00204800      -0.01261170      -0.14635694 </v>
   <v>       0.00989805       0.00807947      -0.14635694 </v>
   <v>      -0.03393596      -0.03118824       0.24216703 </v>
   <v>       0.01004183       0.04498353       0.24216703 </v>
   <v>       0.03696033      -0.02133906       0.22426882 </v>
   <v>      -0.01572911       0.00908120       0.18612569 </v>
   <v>       0.01288310      -0.00743806      -0.02480150 </v>
   <v>      -0.00323932       0.00187022      -0.00260329 </v>
   <v>      -0.02768048      -0.04314994       0.04466941 </v>
   <v>       0.02352870       0.04554697       0.04466941 </v>
   <v>      -0.10809465       0.06240848       0.06642102 </v>
   <v>       0.06771876      -0.03909744       0.03681779 </v>
   <v>       0.04993107      -0.04989895      -0.13767456 </v>
   <v>       0.06817930      -0.01829209      -0.13767456 </v>
   <v>      -0.07630265       0.04405335      -0.17939568 </v>
  </varray>
  <varray name="stress" >
   <v>      -5.53157353      -0.04889241      -0.23220020 </v>
   <v>      -0.04889241      -5.58802962       0.13406085 </v>
   <v>      -0.23219969       0.13406055      -8.66163554 </v>
  </varray>
  <energy>
   <i name="e_fr_energy">    -68.41082572 </i>
   <i name="e_wo_entrp">    -68.38686185 </i>
[...]
        <r>  0.0021  0.0238  0.0114 </r>
        <r>  0.0087  0.0109  0.0212 </r>
        <r>  0.0011  0.0189  0.0185 </r>
        <r>  0.0090  0.0079  0.0069 </r>
        <r>  0.0007  0.0089  0.0218 </r>
        <r>  0.0004  0.0081  0.0137 </r>
        <r>  0.0012  0.0021  0.0080 </r>
        <r>  0.0011  0.0550  0.0000 </r>
       </set>
       <set comment="band 146">
        <r>  0.0013  0.0103  0.0107 </r>
        <r>  0.0009  0.0094  0.0105 </r>
        <r>  0.0005  0.0085  0.0106 </r>
        <r>  0.0012  0.0126  0.0068 </r>
        <r>  0.0009  0.0122  0.0089 </r>
        <r>  0.0004  0.0086  0.0126 </r>
        <r>  0.0015  0.0054  0.0039 </r>
        <r>  0.0044  0.0007  0.0075 </r>
        <r>  0.0017  0.0203  0.0123 </r>
        <r>  0.0032  0.0101  0.0164 </r>
        <r>  0.0013  0.0107  0.0090 </r>
        <r>  0.0020  0.0078  0.0162 </r>
        <r>  0.0227  0.0132  0.0076 </r>
        <r>  0.0092  0.0139  0.0159 </r>
        <r>  0.0018  0.0157  0.0294 </r>
        <r>  0.0003  0.0144  0.0231 </r>
        <r>  0.0042  0.0594  0.0000 </r>
       </set>
       <set comment="band 147">
        <r>  0.0007  0.0019  0.0136 </r>
        <r>  0.0011  0.0055  0.0091 </r>
        <r>  0.0008  0.0171  0.0081 </r>
        <r>  0.0018  0.0123  0.0091 </r>
        <r>  0.0024  0.0107  0.0081 </r>
        <r>  0.0050  0.0067  0.0087 </r>
        <r>  0.0011  0.0106  0.0102 </r>
        <r>  0.0029  0.0049  0.0134 </r>
        <r>  0.0123  0.0103  0.0046 </r>
        <r>  0.0003  0.0108  0.0180 </r>
        <r>  0.0124  0.0111  0.0078 </r>
        <r>  0.0005  0.0040  0.0139 </r>
        <r>  0.0115  0.0271  0.0115 </r>
        <r>  0.0027  0.0081  0.0197 </r>
        <r>  0.0100  0.0218  0.0164 </r>
        <r>  0.0019  0.0140  0.0339 </r>
        <r>  0.0025  0.0541  0.0000 </r>
       </set>
       <set comment="band 148">
        <r>  0.0052  0.0201  0.0182 </r>
        <r>  0.0032  0.0189  0.0174 </r>
        <r>  0.0059  0.0150  0.0178 </r>
        <r>  0.0043  0.0184  0.0192 </r>
        <r>  0.0050  0.0297  0.0141 </r>
        <r>  0.0034  0.0172  0.0258 </r>
        <r>  0.0044  0.0245  0.0202 </r>
        <r>  0.0020  0.0203  0.0237 </r>
        <r>  0.0018  0.0086  0.0140 </r>
        <r>  0.0046  0.0102  0.0081 </r>
        <r>  0.0011  0.0055  0.0115 </r>
        <r>  0.0052  0.0152  0.0086 </r>
        <r>  0.0038  0.0057  0.0047 </r>
        <r>  0.0050  0.0043  0.0082 </r>
        <r>  0.0018  0.0062  0.0093 </r>
        <r>  0.0026  0.0016  0.0065 </r>
        <r>  0.0019  0.0126  0.0000 </r>
       </set>
       <set comment="band 149">
        <r>  0.0031  0.0105  0.0050 </r>
        <r>  0.0026  0.0097  0.0073 </r>
        <r>  0.0018  0.0032  0.0088 </r>
        <r>  0.0021  0.0033  0.0071 </r>
        <r>  0.0026  0.0057  0.0146 </r>
        <r>  0.0062  0.0158  0.0093 </r>
        <r>  0.0035  0.0128  0.0104 </r>
        <r>  0.0050  0.0083  0.0111 </r>
        <r>  0.0035  0.0100  0.0192 </r>
        <r>  0.0018  0.0087  0.0143 </r>
        <r>  0.0051  0.0143  0.0083 </r>
        <r>  0.0054  0.0164  0.0107 </r>
        <r>  0.0089  0.0235  0.0062 </r>
        <r>  0.0006  0.0087  0.0131 </r>
        <r>  0.0010  0.0137  0.0250 </r>
        <r>  0.0021  0.0147  0.0159 </r>
        <r>  0.0001  0.0504  0.0000 </r>
       </set>
       <set comment="band 150">
        <r>  0.0014  0.0072  0.0083 </r>
        <r>  0.0012  0.0134  0.0075 </r>
        <r>  0.0014  0.0081  0.0081 </r>
        <r>  0.0012  0.0143  0.0071 </r>
        <r>  0.0057  0.0083  0.0053 </r>
        <r>  0.0034  0.0105  0.0154 </r>
        <r>  0.0053  0.0075  0.0058 </r>
        <r>  0.0025  0.0107  0.0157 </r>
        <r>  0.0082  0.0164  0.0141 </r>
        <r>  0.0103  0.0076  0.0210 </r>
        <r>  0.0110  0.0173  0.0130 </r>
        <r>  0.0127  0.0071  0.0201 </r>
        <r>  0.0016  0.0174  0.0087 </r>
        <r>  0.0033  0.0067  0.0139 </r>
        <r>  0.0043  0.0141  0.0101 </r>
        <r>  0.0072  0.0060  0.0181 </r>
        <r>  0.0053  0.0157  0.0000 </r>
       </set>
       <set comment="band 151">
        <r>  0.0022  0.0066  0.0136 </r>
        <r>  0.0041  0.0045  0.0105 </r>
        <r>  0.0193  0.0124  0.0089 </r>
        <r>  0.0132  0.0107  0.0075 </r>
        <r>  0.0107  0.0030  0.0176 </r>
        <r>  0.0099  0.0088  0.0073 </r>
        <r>  0.0035  0.0075  0.0145 </r>
        <r>  0.0116  0.0054  0.0112 </r>
        <r>  0.0011  0.0092  0.0078 </r>
        <r>  0.0022  0.0033  0.0129 </r>
        <r>  0.0019  0.0109  0.0076 </r>
        <r>  0.0074  0.0028  0.0067 </r>
        <r>  0.0017  0.0134  0.0047 </r>
        <r>  0.0020  0.0037  0.0062 </r>
        <r>  0.0055  0.0048  0.0045 </r>
        <r>  0.0012  0.0102  0.0069 </r>
        <r>  0.0011  0.0124  0.0000 </r>
       </set>
       <set comment="band 152">
        <r>  0.0136  0.0064  0.0051 </r>
        <r>  0.0136  0.0042  0.0049 </r>
        <r>  0.0006  0.0053  0.0083 </r>
        <r>  0.0002  0.0030  0.0103 </r>
        <r>  0.0044  0.0028  0.0109 </r>
        <r>  0.0044  0.0038  0.0072 </r>
        <r>  0.0066  0.0046  0.0115 </r>
        <r>  0.0082  0.0086  0.0063 </r>
        <r>  0.0056  0.0058  0.0055 </r>
        <r>  0.0046  0.0041  0.0043 </r>
        <r>  0.0008  0.0068  0.0088 </r>
        <r>  0.0006  0.0031  0.0059 </r>
        <r>  0.0010  0.0069  0.0052 </r>
        <r>  0.0011  0.0056  0.0054 </r>
        <r>  0.0040  0.0089  0.0051 </r>
        <r>  0.0020  0.0070  0.0092 </r>
        <r>  0.0012  0.0165  0.0000 </r>
       </set>
       <set comment="band 153">
        <r>  0.0035  0.0089  0.0112 </r>
        <r>  0.0045  0.0153  0.0094 </r>
        <r>  0.0031  0.0093  0.0111 </r>
        <r>  0.0046  0.0093  0.0102 </r>
        <r>  0.0022  0.0168  0.0119 </r>
        <r>  0.0057  0.0154  0.0113 </r>
        <r>  0.0024  0.0175  0.0110 </r>
        <r>  0.0031  0.0128  0.0133 </r>
        <r>  0.0020  0.0207  0.0176 </r>
        <r>  0.0005  0.0170  0.0192 </r>
        <r>  0.0002  0.0229  0.0186 </r>
        <r>  0.0000  0.0230  0.0202 </r>
        <r>  0.0017  0.0149  0.0051 </r>
        <r>  0.0005  0.0059  0.0150 </r>
        <r>  0.0045  0.0071  0.0069 </r>
        <r>  0.0071  0.0059  0.0065 </r>
        <r>  0.0063  0.0046  0.0000 </r>
       </set>
       <set comment="band 154">
        <r>  0.0035  0.0036  0.0023 </r>
        <r>  0.0003  0.0024  0.0026 </r>
        <r>  0.0001  0.0033  0.0033 </r>
        <r>  0.0027  0.0037  0.0014 </r>
        <r>  0.0014  0.0054  0.0021 </r>
        <r>  0.0026  0.0020  0.0050 </r>
        <r>  0.0005  0.0021  0.0031 </r>
        <r>  0.0023  0.0030  0.0027 </r>
        <r>  0.0002  0.0031  0.0013 </r>
        <r>  0.0101  0.0020  0.0057 </r>
        <r>  0.0000  0.0028  0.0018 </r>
        <r>  0.0022  0.0031  0.0064 </r>
        <r>  0.0020  0.0017  0.0082 </r>
        <r>  0.0016  0.0046  0.0019 </r>
        <r>  0.0081  0.0008  0.0046 </r>
        <r>  0.0018  0.0023  0.0027 </r>
        <r>  0.0026  0.0039  0.0000 </r>
       </set>
       <set comment="band 155">
        <r>  0.0033  0.0061  0.0017 </r>
        <r>  0.0012  0.0017  0.0090 </r>
        <r>  0.0015  0.0030  0.0022 </r>
        <r>  0.0079  0.0028  0.0039 </r>
        <r>  0.0048  0.0046  0.0090 </r>
        <r>  0.0004  0.0073  0.0049 </r>
        <r>  0.0045  0.0016  0.0078 </r>
        <r>  0.0058  0.0068  0.0028 </r>
        <r>  0.0033  0.0059  0.0077 </r>
        <r>  0.0010  0.0034  0.0027 </r>
        <r>  0.0068  0.0045  0.0061 </r>
        <r>  0.0013  0.0033  0.0040 </r>
        <r>  0.0002  0.0084  0.0029 </r>
        <r>  0.0036  0.0038  0.0076 </r>
        <r>  0.0043  0.0035  0.0032 </r>
        <r>  0.0010  0.0047  0.0037 </r>
        <r>  0.0031  0.0102  0.0000 </r>
       </set>
       <set comment="band 156">
        <r>  0.0053  0.0164  0.0116 </r>
        <r>  0.0106  0.0134  0.0129 </r>
        <r>  0.0067  0.0212  0.0097 </r>
        <r>  0.0077  0.0064  0.0147 </r>
        <r>  0.0037  0.0079  0.0077 </r>
        <r>  0.0032  0.0144  0.0088 </r>
        <r>  0.0114  0.0093  0.0081 </r>
        <r>  0.0036  0.0096  0.0098 </r>
        <r>  0.0065  0.0023  0.0061 </r>
        <r>  0.0069  0.0056  0.0018 </r>
        <r>  0.0087  0.0044  0.0043 </r>
        <r>  0.0107  0.0026  0.0055 </r>
        <r>  0.0008  0.0107  0.0032 </r>
        <r>  0.0004  0.0009  0.0066 </r>
        <r>  0.0020  0.0092  0.0024 </r>
        <r>  0.0006  0.0031  0.0057 </r>
        <r>  0.0051  0.0041  0.0000 </r>
       </set>
       <set comment="band 157">
        <r>  0.0118  0.0048  0.0067 </r>
        <r>  0.0051  0.0041  0.0064 </r>
        <r>  0.0065  0.0077  0.0097 </r>
        <r>  0.0089  0.0112  0.0046 </r>
        <r>  0.0062  0.0073  0.0056 </r>
        <r>  0.0032  0.0067  0.0047 </r>
        <r>  0.0013  0.0051  0.0076 </r>
        <r>  0.0034  0.0073  0.0048 </r>
        <r>  0.0049  0.0021  0.0038 </r>
        <r>  0.0050  0.0050  0.0020 </r>
        <r>  0.0049  0.0010  0.0051 </r>
        <r>  0.0045  0.0054  0.0030 </r>
        <r>  0.0004  0.0057  0.0014 </r>
        <r>  0.0012  0.0023  0.0035 </r>
        <r>  0.0019  0.0017  0.0031 </r>
        <r>  0.0031  0.0005  0.0015 </r>
        <r>  0.0003  0.0066  0.0000 </r>
       </set>
       <set comment="band 158">
        <r>  0.0011  0.0040  0.0030 </r>
        <r>  0.0028  0.0039  0.0024 </r>
        <r>  0.0048  0.0021  0.0009 </r>
        <r>  0.0036  0.0032  0.0010 </r>
        <r>  0.0005  0.0025  0.0046 </r>
        <r>  0.0002  0.0029  0.0033 </r>
        <r>  0.0049  0.0029  0.0021 </r>
        <r>  0.0043  0.0063  0.0017 </r>
        <r>  0.0046  0.0052  0.0038 </r>
        <r>  0.0032  0.0021  0.0078 </r>
        <r>  0.0019  0.0012  0.0056 </r>
        <r>  0.0024  0.0006  0.0035 </r>
        <r>  0.0020  0.0153  0.0038 </r>
        <r>  0.0019  0.0044  0.0068 </r>
        <r>  0.0029  0.0043  0.0029 </r>
        <r>  0.0013  0.0016  0.0064 </r>
        <r>  0.0036  0.0066  0.0000 </r>
       </set>
       <set comment="band 159">
        <r>  0.0043  0.0075  0.0018 </r>
        <r>  0.0044  0.0037  0.0016 </r>
        <r>  0.0060  0.0034  0.0015 </r>
        <r>  0.0005  0.0018  0.0068 </r>
        <r>  0.0029  0.0065  0.0023 </r>
        <r>  0.0030  0.0054  0.0036 </r>
        <r>  0.0011  0.0011  0.0085 </r>
        <r>  0.0001  0.0134  0.0014 </r>
        <r>  0.0004  0.0093  0.0029 </r>
        <r>  0.0014  0.0016  0.0046 </r>
        <r>  0.0001  0.0052  0.0095 </r>
        <r>  0.0003  0.0072  0.0070 </r>
        <r>  0.0015  0.0218  0.0070 </r>
        <r>  0.0033  0.0015  0.0161 </r>
        <r>  0.0053  0.0071  0.0036 </r>
        <r>  0.0009  0.0118  0.0075 </r>
        <r>  0.0032  0.0078  0.0000 </r>
       </set>
       <set comment="band 160">
        <r>  0.0006  0.0029  0.0062 </r>
        <r>  0.0029  0.0085  0.0014 </r>
        <r>  0.0000  0.0021  0.0069 </r>
        <r>  0.0005  0.0104  0.0024 </r>
        <r>  0.0006  0.0094  0.0035 </r>
        <r>  0.0043  0.0030  0.0045 </r>
        <r>  0.0003  0.0133  0.0032 </r>
        <r>  0.0013  0.0029  0.0087 </r>
        <r>  0.0040  0.0018  0.0070 </r>
        <r>  0.0027  0.0083  0.0044 </r>
        <r>  0.0018  0.0030  0.0087 </r>
        <r>  0.0018  0.0092  0.0058 </r>
        <r>  0.0021  0.0168  0.0081 </r>
        <r>  0.0031  0.0035  0.0161 </r>
        <r>  0.0115  0.0103  0.0031 </r>
        <r>  0.0060  0.0047  0.0109 </r>
        <r>  0.0146  0.0132  0.0000 </r>
       </set>
       <set comment="band 161">
        <r>  0.0026  0.0061  0.0043 </r>
        <r>  0.0006  0.0057  0.0068 </r>
        <r>  0.0013  0.0032  0.0049 </r>
        <r>  0.0007  0.0078  0.0029 </r>
        <r>  0.0038  0.0091  0.0101 </r>
        <r>  0.0004  0.0098  0.0089 </r>
        <r>  0.0038  0.0058  0.0062 </r>
        <r>  0.0038  0.0105  0.0031 </r>
        <r>  0.0023  0.0067  0.0119 </r>
        <r>  0.0015  0.0080  0.0044 </r>
        <r>  0.0119  0.0038  0.0057 </r>
        <r>  0.0017  0.0046  0.0024 </r>
        <r>  0.0024  0.0017  0.0008 </r>
        <r>  0.0027  0.0045  0.0035 </r>
        <r>  0.0000  0.0059  0.0031 </r>
        <r>  0.0024  0.0024  0.0022 </r>
        <r>  0.0006  0.0158  0.0000 </r>
       </set>
       <set comment="band 162">
        <r>  0.0014  0.0077  0.0014 </r>
        <r>  0.0088  0.0022  0.0037 </r>
        <r>  0.0040  0.0116  0.0031 </r>
        <r>  0.0053  0.0016  0.0096 </r>
        <r>  0.0017  0.0075  0.0035 </r>
        <r>  0.0126  0.0024  0.0076 </r>
        <r>  0.0032  0.0086  0.0059 </r>
        <r>  0.0076  0.0039  0.0091 </r>
        <r>  0.0079  0.0080  0.0089 </r>
        <r>  0.0071  0.0103  0.0064 </r>
        <r>  0.0105  0.0052  0.0037 </r>
        <r>  0.0057  0.0079  0.0077 </r>
        <r>  0.0016  0.0066  0.0075 </r>
        <r>  0.0005  0.0094  0.0043 </r>
        <r>  0.0009  0.0046  0.0089 </r>
        <r>  0.0013  0.0113  0.0066 </r>
        <r>  0.0030  0.0036  0.0000 </r>
       </set>
       <set comment="band 163">
        <r>  0.0012  0.0070  0.0077 </r>
        <r>  0.0091  0.0077  0.0056 </r>
        <r>  0.0045  0.0076  0.0028 </r>
        <r>  0.0059  0.0051  0.0063 </r>
        <r>  0.0089  0.0016  0.0026 </r>
        <r>  0.0014  0.0046  0.0061 </r>
        <r>  0.0181  0.0054  0.0027 </r>
        <r>  0.0017  0.0009  0.0064 </r>
        <r>  0.0036  0.0026  0.0030 </r>
        <r>  0.0092  0.0032  0.0046 </r>
        <r>  0.0062  0.0092  0.0032 </r>
        <r>  0.0076  0.0045  0.0070 </r>
        <r>  0.0049  0.0037  0.0039 </r>
        <r>  0.0008  0.0050  0.0055 </r>
        <r>  0.0058  0.0015  0.0022 </r>
        <r>  0.0055  0.0030  0.0049 </r>
        <r>  0.0001  0.0076  0.0000 </r>
       </set>
       <set comment="band 164">
        <r>  0.0102  0.0080  0.0020 </r>
        <r>  0.0050  0.0034  0.0032 </r>
        <r>  0.0027  0.0039  0.0062 </r>
        <r>  0.0051  0.0099  0.0032 </r>
        <r>  0.0092  0.0029  0.0030 </r>
        <r>  0.0039  0.0009  0.0032 </r>
        <r>  0.0017  0.0030  0.0036 </r>
        <r>  0.0024  0.0018  0.0044 </r>
        <r>  0.0019  0.0017  0.0053 </r>
        <r>  0.0031  0.0082  0.0019 </r>
        <r>  0.0034  0.0015  0.0041 </r>
        <r>  0.0015  0.0024  0.0021 </r>
        <r>  0.0006  0.0040  0.0028 </r>
        <r>  0.0031  0.0044  0.0006 </r>
        <r>  0.0028  0.0035  0.0036 </r>
        <r>  0.0020  0.0022  0.0024 </r>
        <r>  0.0016  0.0035  0.0000 </r>
       </set>
       <set comment="band 165">
        <r>  0.0122  0.0123  0.0090 </r>
        <r>  0.0019  0.0150  0.0092 </r>
        <r>  0.0166  0.0097  0.0085 </r>
        <r>  0.0036  0.0169  0.0071 </r>
        <r>  0.0073  0.0048  0.0084 </r>
        <r>  0.0025  0.0041  0.0064 </r>
        <r>  0.0094  0.0046  0.0061 </r>
        <r>  0.0086  0.0085  0.0054 </r>
        <r>  0.0028  0.0079  0.0016 </r>
        <r>  0.0012  0.0036  0.0094 </r>
        <r>  0.0048  0.0032  0.0029 </r>
        <r>  0.0105  0.0046  0.0056 </r>
        <r>  0.0033  0.0077  0.0024 </r>
        <r>  0.0073  0.0046  0.0032 </r>
        <r>  0.0057  0.0022  0.0029 </r>
        <r>  0.0016  0.0008  0.0053 </r>
        <r>  0.0009  0.0086  0.0000 </r>
       </set>
       <set comment="band 166">
        <r>  0.0004  0.0046  0.0020 </r>
        <r>  0.0018  0.0052  0.0048 </r>
        <r>  0.0003  0.0037  0.0038 </r>
        <r>  0.0008  0.0042  0.0023 </r>
        <r>  0.0014  0.0052  0.0023 </r>
        <r>  0.0078  0.0040  0.0036 </r>
        <r>  0.0010  0.0029  0.0028 </r>
        <r>  0.0019  0.0042  0.0057 </r>
        <r>  0.0036  0.0020  0.0018 </r>
        <r>  0.0069  0.0008  0.0056 </r>
        <r>  0.0051  0.0018  0.0048 </r>
        <r>  0.0001  0.0047  0.0053 </r>
        <r>  0.0029  0.0057  0.0030 </r>
        <r>  0.0005  0.0022  0.0072 </r>
        <r>  0.0034  0.0030  0.0032 </r>
        <r>  0.0034  0.0056  0.0015 </r>
        <r>  0.0006  0.0093  0.0000 </r>
       </set>
       <set comment="band 167">
        <r>  0.0027  0.0038  0.0028 </r>
        <r>  0.0002  0.0012  0.0028 </r>
        <r>  0.0012  0.0013  0.0032 </r>
        <r>  0.0041  0.0032  0.0025 </r>
        <r>  0.0017  0.0054  0.0017 </r>
        <r>  0.0012  0.0019  0.0023 </r>
        <r>  0.0011  0.0031  0.0022 </r>
        <r>  0.0024  0.0062  0.0009 </r>
        <r>  0.0004  0.0016  0.0026 </r>
        <r>  0.0022  0.0047  0.0017 </r>
        <r>  0.0045  0.0067  0.0022 </r>
        <r>  0.0010  0.0005  0.0018 </r>
        <r>  0.0024  0.0012  0.0030 </r>
        <r>  0.0021  0.0009  0.0019 </r>
        <r>  0.0016  0.0026  0.0020 </r>
        <r>  0.0020  0.0014  0.0037 </r>
        <r>  0.0001  0.0034  0.0000 </r>
       </set>
       <set comment="band 168">
        <r>  0.0016  0.0029  0.0043 </r>
        <r>  0.0045  0.0094  0.0032 </r>
        <r>  0.0038  0.0038  0.0040 </r>
        <r>  0.0052  0.0045  0.0018 </r>
        <r>  0.0020  0.0037  0.0064 </r>
        <r>  0.0111  0.0076  0.0030 </r>
        <r>  0.0015  0.0047  0.0041 </r>
        <r>  0.0057  0.0010  0.0032 </r>
        <r>  0.0099  0.0044  0.0023 </r>
        <r>  0.0175  0.0099  0.0027 </r>
        <r>  0.0082  0.0150  0.0032 </r>
        <r>  0.0170  0.0096  0.0034 </r>
        <r>  0.0020  0.0053  0.0145 </r>
        <r>  0.0009  0.0086  0.0089 </r>
        <r>  0.0031  0.0034  0.0109 </r>
        <r>  0.0017  0.0016  0.0124 </r>
        <r>  0.0134  0.0194  0.0000 </r>
       </set>
      </set>
     </set>
    </set>
   </array>
  </projected>
 </calculation>
 <structure name="finalpos" >
  <crystal>
   <varray name="basis" >
    <v>       5.01969481       0.00000000       0.00000000 </v>
    <v>       2.50984740       4.34718322       0.00000000 </v>
    <v>       0.00000000       0.00000000      26.20742226 </v>
   </varray>
   <i name="volume">    571.88613037 </i>
   <varray name="rec_basis" >
    <v>       0.19921530      -0.11501701       0.00000000 </v>
    <v>       0.00000000       0.23003401       0.00000000 </v>
    <v>       0.00000000       0.00000000       0.03815713 </v>
   </varray>
  </crystal>
  <varray name="positions" >
   <v>       0.00000000       0.00000000       0.00000000 </v>
   <v>       0.00000000       0.50000000       0.00000000 </v>
   <v>       0.50000000       0.00000000       0.00000000 </v>
   <v>       0.50000000       0.50000000       0.00000000 </v>
   <v>       0.16666667       0.16666667       0.07819471 </v>
   <v>       0.16666667       0.66666669       0.07819471 </v>
   <v>       0.66666669       0.16666667       0.07819471 </v>
   <v>       0.66666669       0.66666669       0.07819471 </v>
   <v>       0.33332621       0.33333691       0.15559065 </v>
   <v>       0.33347983       0.83326013       0.15744020 </v>
   <v>       0.83293864       0.33339609       0.15734281 </v>
   <v>       0.83293864       0.83366536       0.15734281 </v>
   <v>      -0.00093413       0.00046706       0.23914719 </v>
   <v>       0.98875276       0.50562362       0.23692839 </v>
   <v>       0.50347447       0.99136430       0.23728728 </v>
   <v>       0.50347447       0.50516123       0.23728728 </v>
   <v>       0.33013198       0.33493403       0.27843128 </v>
  </varray>
  <varray name="selective"  type="logical" >
   <v type="logical" >  F  F  F </v>
   <v type="logical" >  F  F  F </v>
   <v type="logical" >  F  F  F </v>
   <v type="logical" >  F  F  F </v>
   <v type="logical" >  F  F  F </v>
   <v type="logical" >  F  F  F </v>
   <v type="logical" >  F  F  F </v>
   <v type="logical" >  F  F  F </v>
   <v type="logical" >  T  T  T </v>
   <v type="logical" >  T  T  T </v>
   <v type="logical" >  T  T  T </v>
   <v type="logical" >  T  T  T </v>
   <v type="logical" >  T  T  T </v>
   <v type="logical" >  T  T  T </v>
   <v type="logical" >  T  T  T </v>
   <v type="logical" >  T  T  T </v>
   <v type="logical" >  T  T  T </v>
  </varray>
  <nose>
   <v>      -3.00000000       0.00000000       0.00010000       0.00010000 </v>
  </nose>
 </structure>
</modeling>
