unknown system                          
           1
     5.019695    0.000000    0.000000
     2.509847    4.347183    0.000000
     0.000000    0.000000   26.207422
   Cu   C 
  16   1
Direct configuration=     1
   0.00000000  0.00000000  0.00000000
   0.00000000  0.50000000  0.00000000
   0.50000000  0.00000000  0.00000000
   0.50000000  0.50000000  0.00000000
   0.16666667  0.16666667  0.07819471
   0.16666667  0.66666669  0.07819471
   0.66666669  0.16666667  0.07819471
   0.66666669  0.66666669  0.07819471
   0.33361860  0.33319071  0.15703898
   0.33361860  0.83319074  0.15703898
   0.83218972  0.33390517  0.15703578
   0.83218972  0.83390520  0.15703578
   0.99347096  0.00326452  0.23776036
   0.99347096  0.50326452  0.23776036
   0.51082144  0.99458928  0.23886979
   0.51082144  0.49458928  0.23886979
   0.31681801  0.34159101  0.28491588
Direct configuration=     2
   0.00000000  0.00000000  0.00000000
   0.00000000  0.50000000  0.00000000
   0.50000000  0.00000000  0.00000000
   0.50000000  0.50000000  0.00000000
   0.16666667  0.16666667  0.07819471
   0.16666667  0.66666669  0.07819471
   0.66666669  0.16666667  0.07819471
   0.66666669  0.66666669  0.07819471
   0.33337616  0.33331193  0.15684859
   0.33398194  0.83300907  0.15747313
   0.83241088  0.33439906  0.15716930
   0.83241088  0.83319015  0.15716930
   0.99945559  0.00027221  0.23789524
   0.99571209  0.50214395  0.23814846
   0.50454306  0.99770615  0.23956421
   0.50454306  0.49775079  0.23956421
   0.32054198  0.33972902  0.28225666
Direct configuration=     3
   0.00000000  0.00000000  0.00000000
   0.00000000  0.50000000  0.00000000
   0.50000000  0.00000000  0.00000000
   0.50000000  0.50000000  0.00000000
   0.16666667  0.16666667  0.07819471
   0.16666667  0.66666669  0.07819471
   0.66666669  0.16666667  0.07819471
   0.66666669  0.66666669  0.07819471
   0.33334761  0.33332621  0.15682616
   0.33402473  0.83298768  0.15752426
   0.83243692  0.33445723  0.15718503
   0.83243692  0.83310593  0.15718503
   0.00016046 -0.00008023  0.23791112
   0.99597605  0.50201197  0.23819417
   0.50380359  0.99807326  0.23964600
   0.50380359  0.49812315  0.23964600
   0.32098060  0.33950972  0.28194345
Direct configuration=     4
   0.00000000  0.00000000  0.00000000
   0.00000000  0.50000000  0.00000000
   0.50000000  0.00000000  0.00000000
   0.50000000  0.50000000  0.00000000
   0.16666667  0.16666667  0.07819471
   0.16666667  0.66666669  0.07819471
   0.66666669  0.16666667  0.07819471
   0.66666669  0.66666669  0.07819471
   0.33345219  0.33327392  0.15657052
   0.33462750  0.83268629  0.15792600
   0.83230656  0.33486690  0.15745325
   0.83230656  0.83282663  0.15745325
   0.00302684 -0.00151342  0.23802955
   0.98975625  0.50512187  0.23788294
   0.50339158  0.99418254  0.23965021
   0.50339158  0.50242588  0.23965021
   0.32478634  0.33760684  0.28101328
Direct configuration=     5
   0.00000000  0.00000000  0.00000000
   0.00000000  0.50000000  0.00000000
   0.50000000  0.00000000  0.00000000
   0.50000000  0.50000000  0.00000000
   0.16666667  0.16666667  0.07819471
   0.16666667  0.66666669  0.07819471
   0.66666669  0.16666667  0.07819471
   0.66666669  0.66666669  0.07819471
   0.33348414  0.33325794  0.15649242
   0.33481163  0.83259423  0.15804873
   0.83226674  0.33499204  0.15753518
   0.83226674  0.83274131  0.15753518
   0.00390245 -0.00195123  0.23806573
   0.98785625  0.50607188  0.23778787
   0.50326572  0.99299401  0.23965150
   0.50326572  0.50374026  0.23965150
   0.32594891  0.33702556  0.28072913
Direct configuration=     6
   0.00000000  0.00000000  0.00000000
   0.00000000  0.50000000  0.00000000
   0.50000000  0.00000000  0.00000000
   0.50000000  0.50000000  0.00000000
   0.16666667  0.16666667  0.07819471
   0.16666667  0.66666669  0.07819471
   0.66666669  0.16666667  0.07819471
   0.66666669  0.66666669  0.07819471
   0.33367782  0.33316110  0.15640768
   0.33484945  0.83257532  0.15809877
   0.83221992  0.33452830  0.15766137
   0.83221992  0.83325186  0.15766137
   0.00279225 -0.00139613  0.23821481
   0.98794335  0.50602833  0.23781867
   0.50403096  0.99185752  0.23937683
   0.50403096  0.50411152  0.23937683
   0.32541035  0.33729484  0.28024255
Direct configuration=     7
   0.00000000  0.00000000  0.00000000
   0.00000000  0.50000000  0.00000000
   0.50000000  0.00000000  0.00000000
   0.50000000  0.50000000  0.00000000
   0.16666667  0.16666667  0.07819471
   0.16666667  0.66666669  0.07819471
   0.66666669  0.16666667  0.07819471
   0.66666669  0.66666669  0.07819471
   0.33386604  0.33306699  0.15632533
   0.33488619  0.83255695  0.15814740
   0.83217443  0.33407764  0.15778401
   0.83217443  0.83374802  0.15778401
   0.00171337 -0.00085668  0.23835969
   0.98802798  0.50598601  0.23784861
   0.50477461  0.99075308  0.23910990
   0.50477461  0.50447231  0.23910990
   0.32488699  0.33755652  0.27976969
Direct configuration=     8
   0.00000000  0.00000000  0.00000000
   0.00000000  0.50000000  0.00000000
   0.50000000  0.00000000  0.00000000
   0.50000000  0.50000000  0.00000000
   0.16666667  0.16666667  0.07819471
   0.16666667  0.66666669  0.07819471
   0.66666669  0.16666667  0.07819471
   0.66666669  0.66666669  0.07819471
   0.33359935  0.33320034  0.15623899
   0.33464943  0.83267533  0.15805872
   0.83249734  0.33375818  0.15778211
   0.83249734  0.83374457  0.15778211
   0.00064382 -0.00032191  0.23857585
   0.98790831  0.50604585  0.23765248
   0.50467193  0.99155988  0.23882168
   0.50467193  0.50376819  0.23882168
   0.32622441  0.33688781  0.27943378
Direct configuration=     9
   0.00000000  0.00000000  0.00000000
   0.00000000  0.50000000  0.00000000
   0.50000000  0.00000000  0.00000000
   0.50000000  0.50000000  0.00000000
   0.16666667  0.16666667  0.07819471
   0.16666667  0.66666669  0.07819471
   0.66666669  0.16666667  0.07819471
   0.66666669  0.66666669  0.07819471
   0.33342917  0.33328543  0.15618390
   0.33449835  0.83275087  0.15800213
   0.83270338  0.33355435  0.15778090
   0.83270338  0.83374237  0.15778090
  -0.00003862  0.00001931  0.23871378
   0.98783195  0.50608403  0.23752733
   0.50460642  0.99207466  0.23863778
   0.50460642  0.50331892  0.23863778
   0.32707777  0.33646113  0.27921945
Direct configuration=    10
   0.00000000  0.00000000  0.00000000
   0.00000000  0.50000000  0.00000000
   0.50000000  0.00000000  0.00000000
   0.50000000  0.50000000  0.00000000
   0.16666667  0.16666667  0.07819471
   0.16666667  0.66666669  0.07819471
   0.66666669  0.16666667  0.07819471
   0.66666669  0.66666669  0.07819471
   0.33313595  0.33343204  0.15605165
   0.33431468  0.83284271  0.15788294
   0.83297197  0.33343562  0.15769026
   0.83297197  0.83359250  0.15769026
  -0.00034550  0.00017275  0.23891949
   0.98776885  0.50611557  0.23731473
   0.50442810  0.99171453  0.23825906
   0.50442810  0.50385737  0.23825906
   0.32782261  0.33608871  0.27912503
Direct configuration=    11
   0.00000000  0.00000000  0.00000000
   0.00000000  0.50000000  0.00000000
   0.50000000  0.00000000  0.00000000
   0.50000000  0.50000000  0.00000000
   0.16666667  0.16666667  0.07819471
   0.16666667  0.66666669  0.07819471
   0.66666669  0.16666667  0.07819471
   0.66666669  0.66666669  0.07819471
   0.33286512  0.33356745  0.15592952
   0.33414503  0.83292753  0.15777287
   0.83322004  0.33332597  0.15760655
   0.83322004  0.83345408  0.15760655
  -0.00062893  0.00031447  0.23910948
   0.98771058  0.50614471  0.23711837
   0.50426340  0.99138191  0.23790929
   0.50426340  0.50435469  0.23790929
   0.32851054  0.33574474  0.27903783
Direct configuration=    12
   0.00000000  0.00000000  0.00000000
   0.00000000  0.50000000  0.00000000
   0.50000000  0.00000000  0.00000000
   0.50000000  0.50000000  0.00000000
   0.16666667  0.16666667  0.07819471
   0.16666667  0.66666669  0.07819471
   0.66666669  0.16666667  0.07819471
   0.66666669  0.66666669  0.07819471
   0.33284372  0.33357815  0.15574936
   0.33388280  0.83305865  0.15759513
   0.83331492  0.33319973  0.15743640
   0.83331492  0.83348544  0.15743640
  -0.00060208  0.00030104  0.23929798
   0.98906844  0.50546578  0.23700625
   0.50336744  0.99172055  0.23754846
   0.50336744  0.50491200  0.23754846
   0.32906522  0.33546740  0.27871770
Direct configuration=    13
   0.00000000  0.00000000  0.00000000
   0.00000000  0.50000000  0.00000000
   0.50000000  0.00000000  0.00000000
   0.50000000  0.50000000  0.00000000
   0.16666667  0.16666667  0.07819471
   0.16666667  0.66666669  0.07819471
   0.66666669  0.16666667  0.07819471
   0.66666669  0.66666669  0.07819471
   0.33284349  0.33357827  0.15574746
   0.33388003  0.83306003  0.15759325
   0.83331593  0.33319839  0.15743460
   0.83331593  0.83348577  0.15743460
  -0.00060180  0.00030090  0.23929997
   0.98908278  0.50545861  0.23700506
   0.50335798  0.99172413  0.23754465
   0.50335798  0.50491789  0.23754465
   0.32907108  0.33546448  0.27871432
Direct configuration=    14
   0.00000000  0.00000000  0.00000000
   0.00000000  0.50000000  0.00000000
   0.50000000  0.00000000  0.00000000
   0.50000000  0.50000000  0.00000000
   0.16666667  0.16666667  0.07819471
   0.16666667  0.66666669  0.07819471
   0.66666669  0.16666667  0.07819471
   0.66666669  0.66666669  0.07819471
   0.33312011  0.33343996  0.15568469
   0.33377531  0.83311239  0.15753385
   0.83312986  0.33324572  0.15739801
   0.83312986  0.83362450  0.15739801
  -0.00072996  0.00036498  0.23926361
   0.98887484  0.50556258  0.23697111
   0.50335140  0.99174603  0.23746995
   0.50335140  0.50490257  0.23746995
   0.32960476  0.33519763  0.27859807
Direct configuration=    15
   0.00000000  0.00000000  0.00000000
   0.00000000  0.50000000  0.00000000
   0.50000000  0.00000000  0.00000000
   0.50000000  0.50000000  0.00000000
   0.16666667  0.16666667  0.07819471
   0.16666667  0.66666669  0.07819471
   0.66666669  0.16666667  0.07819471
   0.66666669  0.66666669  0.07819471
   0.33360069  0.33319967  0.15557564
   0.33359338  0.83320336  0.15743064
   0.83280659  0.33332796  0.15733444
   0.83280659  0.83386554  0.15733444
  -0.00095261  0.00047631  0.23920044
   0.98851358  0.50574321  0.23691213
   0.50333996  0.99178408  0.23734018
   0.50333996  0.50487596  0.23734018
   0.33053197  0.33473403  0.27839609
Direct configuration=    16
   0.00000000  0.00000000  0.00000000
   0.00000000  0.50000000  0.00000000
   0.50000000  0.00000000  0.00000000
   0.50000000  0.50000000  0.00000000
   0.16666667  0.16666667  0.07819471
   0.16666667  0.66666669  0.07819471
   0.66666669  0.16666667  0.07819471
   0.66666669  0.66666669  0.07819471
   0.33313650  0.33343177  0.15560103
   0.33340135  0.83329937  0.15744681
   0.83302991  0.33344318  0.15734860
   0.83302991  0.83352700  0.15734860
  -0.00092135  0.00046068  0.23911038
   0.98891807  0.50554096  0.23693962
   0.50356745  0.99107416  0.23725072
   0.50356745  0.50535839  0.23725072
   0.32985551  0.33507226  0.27845561
Direct configuration=    17
   0.00000000  0.00000000  0.00000000
   0.00000000  0.50000000  0.00000000
   0.50000000  0.00000000  0.00000000
   0.50000000  0.50000000  0.00000000
   0.16666667  0.16666667  0.07819471
   0.16666667  0.66666669  0.07819471
   0.66666669  0.16666667  0.07819471
   0.66666669  0.66666669  0.07819471
   0.33332621  0.33333691  0.15559065
   0.33347983  0.83326013  0.15744020
   0.83293864  0.33339609  0.15734281
   0.83293864  0.83366536  0.15734281
  -0.00093413  0.00046706  0.23914719
   0.98875276  0.50562362  0.23692839
   0.50347447  0.99136430  0.23728728
   0.50347447  0.50516123  0.23728728
   0.33013198  0.33493403  0.27843128
