  38  38   1   0
  0.3386168E+02  0.7529542E-09  0.7529542E-09  0.2620742E-08  0.5000000E-15
  1.000000000000000E-004
  CAR 
 unknown system                          
     11.62178745    -75.15071067  301     -0.97201725      1.00000000
    -75.151  0.0000E+00  0.0000E+00
    -74.861  0.0000E+00  0.0000E+00
    -74.572  0.0000E+00  0.0000E+00
    -74.283  0.0000E+00  0.0000E+00
    -73.994  0.0000E+00  0.0000E+00
    -73.705  0.0000E+00  0.0000E+00
    -73.415  0.0000E+00  0.0000E+00
    -73.126  0.0000E+00  0.0000E+00
    -72.837  0.0000E+00  0.0000E+00
    -72.548  0.0000E+00  0.0000E+00
    -72.258  0.0000E+00  0.0000E+00
    -71.969  0.0000E+00  0.0000E+00
    -71.680  0.5884E-12  0.1702E-12
    -71.391  0.3750E-03  0.1085E-03
    -71.101  0.5780E+00  0.1673E+00
    -70.812  0.2937E+01  0.1017E+01
    -70.523  0.1452E+01  0.1437E+01
    -70.234  0.1117E-01  0.1440E+01
    -69.944  0.1509E-08  0.1440E+01
    -69.655  0.0000E+00  0.1440E+01
    -69.366  0.0000E+00  0.1440E+01
    -69.077  0.0000E+00  0.1440E+01
    -68.787  0.0000E+00  0.1440E+01
    -68.498  0.0000E+00  0.1440E+01
    -68.209  0.0000E+00  0.1440E+01
    -67.920  0.0000E+00  0.1440E+01
    -67.630  0.0000E+00  0.1440E+01
    -67.341  0.0000E+00  0.1440E+01
    -67.052  0.0000E+00  0.1440E+01
    -66.763  0.0000E+00  0.1440E+01
    -66.473  0.0000E+00  0.1440E+01
    -66.184  0.0000E+00  0.1440E+01
    -65.895  0.0000E+00  0.1440E+01
    -65.606  0.0000E+00  0.1440E+01
    -65.316  0.0000E+00  0.1440E+01
    -65.027  0.0000E+00  0.1440E+01
    -64.738  0.0000E+00  0.1440E+01
    -64.449  0.0000E+00  0.1440E+01
    -64.160  0.0000E+00  0.1440E+01
    -63.870  0.0000E+00  0.1440E+01
    -63.581  0.0000E+00  0.1440E+01
    -63.292  0.0000E+00  0.1440E+01
    -63.003  0.0000E+00  0.1440E+01
    -62.713  0.0000E+00  0.1440E+01
    -62.424  0.0000E+00  0.1440E+01
    -62.135  0.0000E+00  0.1440E+01
    -61.846  0.0000E+00  0.1440E+01
    -61.556  0.0000E+00  0.1440E+01
    -61.267  0.0000E+00  0.1440E+01
    -60.978  0.0000E+00  0.1440E+01
    -60.689  0.0000E+00  0.1440E+01
    -60.399  0.0000E+00  0.1440E+01
    -60.110  0.0000E+00  0.1440E+01
    -59.821  0.0000E+00  0.1440E+01
    -59.532  0.0000E+00  0.1440E+01
    -59.242  0.0000E+00  0.1440E+01
    -58.953  0.0000E+00  0.1440E+01
    -58.664  0.0000E+00  0.1440E+01
    -58.375  0.0000E+00  0.1440E+01
    -58.085  0.0000E+00  0.1440E+01
    -57.796  0.0000E+00  0.1440E+01
    -57.507  0.0000E+00  0.1440E+01
    -57.218  0.0000E+00  0.1440E+01
    -56.928  0.0000E+00  0.1440E+01
    -56.639  0.0000E+00  0.1440E+01
    -56.350  0.0000E+00  0.1440E+01
    -56.061  0.0000E+00  0.1440E+01
    -55.772  0.0000E+00  0.1440E+01
    -55.482  0.0000E+00  0.1440E+01
    -55.193  0.0000E+00  0.1440E+01
    -54.904  0.0000E+00  0.1440E+01
    -54.615  0.0000E+00  0.1440E+01
    -54.325  0.0000E+00  0.1440E+01
    -54.036  0.0000E+00  0.1440E+01
    -53.747  0.0000E+00  0.1440E+01
    -53.458  0.0000E+00  0.1440E+01
    -53.168  0.0000E+00  0.1440E+01
    -52.879  0.0000E+00  0.1440E+01
    -52.590  0.0000E+00  0.1440E+01
    -52.301  0.0000E+00  0.1440E+01
    -52.011  0.0000E+00  0.1440E+01
    -51.722  0.0000E+00  0.1440E+01
    -51.433  0.0000E+00  0.1440E+01
    -51.144  0.0000E+00  0.1440E+01
    -50.854  0.0000E+00  0.1440E+01
    -50.565  0.0000E+00  0.1440E+01
    -50.276  0.0000E+00  0.1440E+01
    -49.987  0.0000E+00  0.1440E+01
    -49.697  0.0000E+00  0.1440E+01
    -49.408  0.0000E+00  0.1440E+01
    -49.119  0.0000E+00  0.1440E+01
    -48.830  0.0000E+00  0.1440E+01
    -48.540  0.0000E+00  0.1440E+01
    -48.251  0.0000E+00  0.1440E+01
    -47.962  0.0000E+00  0.1440E+01
    -47.673  0.0000E+00  0.1440E+01
    -47.384  0.0000E+00  0.1440E+01
    -47.094  0.0000E+00  0.1440E+01
    -46.805  0.0000E+00  0.1440E+01
    -46.516  0.0000E+00  0.1440E+01
    -46.227  0.0000E+00  0.1440E+01
    -45.937  0.0000E+00  0.1440E+01
    -45.648  0.0000E+00  0.1440E+01
    -45.359  0.0000E+00  0.1440E+01
    -45.070  0.0000E+00  0.1440E+01
    -44.780  0.0000E+00  0.1440E+01
    -44.491  0.0000E+00  0.1440E+01
    -44.202  0.0000E+00  0.1440E+01
    -43.913  0.0000E+00  0.1440E+01
    -43.623  0.0000E+00  0.1440E+01
    -43.334  0.0000E+00  0.1440E+01
    -43.045  0.0000E+00  0.1440E+01
    -42.756  0.0000E+00  0.1440E+01
    -42.466  0.0000E+00  0.1440E+01
    -42.177  0.0000E+00  0.1440E+01
    -41.888  0.0000E+00  0.1440E+01
    -41.599  0.0000E+00  0.1440E+01
    -41.309  0.0000E+00  0.1440E+01
    -41.020  0.0000E+00  0.1440E+01
    -40.731  0.0000E+00  0.1440E+01
    -40.442  0.0000E+00  0.1440E+01
    -40.152  0.0000E+00  0.1440E+01
    -39.863  0.0000E+00  0.1440E+01
    -39.574  0.0000E+00  0.1440E+01
    -39.285  0.0000E+00  0.1440E+01
    -38.996  0.0000E+00  0.1440E+01
    -38.706  0.0000E+00  0.1440E+01
    -38.417  0.0000E+00  0.1440E+01
    -38.128  0.0000E+00  0.1440E+01
    -37.839  0.0000E+00  0.1440E+01
    -37.549  0.0000E+00  0.1440E+01
    -37.260  0.0000E+00  0.1440E+01
    -36.971  0.0000E+00  0.1440E+01
    -36.682  0.0000E+00  0.1440E+01
    -36.392  0.0000E+00  0.1440E+01
    -36.103  0.0000E+00  0.1440E+01
    -35.814  0.0000E+00  0.1440E+01
    -35.525  0.0000E+00  0.1440E+01
    -35.235  0.0000E+00  0.1440E+01
    -34.946  0.0000E+00  0.1440E+01
    -34.657  0.0000E+00  0.1440E+01
    -34.368  0.0000E+00  0.1440E+01
    -34.078  0.0000E+00  0.1440E+01
    -33.789  0.0000E+00  0.1440E+01
    -33.500  0.0000E+00  0.1440E+01
    -33.211  0.0000E+00  0.1440E+01
    -32.921  0.0000E+00  0.1440E+01
    -32.632  0.0000E+00  0.1440E+01
    -32.343  0.0000E+00  0.1440E+01
    -32.054  0.0000E+00  0.1440E+01
    -31.764  0.0000E+00  0.1440E+01
    -31.475  0.0000E+00  0.1440E+01
    -31.186  0.0000E+00  0.1440E+01
    -30.897  0.0000E+00  0.1440E+01
    -30.607  0.0000E+00  0.1440E+01
    -30.318  0.0000E+00  0.1440E+01
    -30.029  0.0000E+00  0.1440E+01
    -29.740  0.0000E+00  0.1440E+01
    -29.451  0.0000E+00  0.1440E+01
    -29.161  0.0000E+00  0.1440E+01
    -28.872  0.0000E+00  0.1440E+01
    -28.583  0.0000E+00  0.1440E+01
    -28.294  0.0000E+00  0.1440E+01
    -28.004  0.0000E+00  0.1440E+01
    -27.715  0.0000E+00  0.1440E+01
    -27.426  0.0000E+00  0.1440E+01
    -27.137  0.0000E+00  0.1440E+01
    -26.847  0.0000E+00  0.1440E+01
    -26.558  0.0000E+00  0.1440E+01
    -26.269  0.0000E+00  0.1440E+01
    -25.980  0.0000E+00  0.1440E+01
    -25.690  0.0000E+00  0.1440E+01
    -25.401  0.0000E+00  0.1440E+01
    -25.112  0.0000E+00  0.1440E+01
    -24.823  0.0000E+00  0.1440E+01
    -24.533  0.0000E+00  0.1440E+01
    -24.244  0.0000E+00  0.1440E+01
    -23.955  0.0000E+00  0.1440E+01
    -23.666  0.0000E+00  0.1440E+01
    -23.376  0.0000E+00  0.1440E+01
    -23.087  0.0000E+00  0.1440E+01
    -22.798  0.0000E+00  0.1440E+01
    -22.509  0.0000E+00  0.1440E+01
    -22.219  0.0000E+00  0.1440E+01
    -21.930  0.0000E+00  0.1440E+01
    -21.641  0.0000E+00  0.1440E+01
    -21.352  0.0000E+00  0.1440E+01
    -21.063  0.0000E+00  0.1440E+01
    -20.773  0.0000E+00  0.1440E+01
    -20.484  0.0000E+00  0.1440E+01
    -20.195  0.0000E+00  0.1440E+01
    -19.906  0.0000E+00  0.1440E+01
    -19.616  0.0000E+00  0.1440E+01
    -19.327  0.0000E+00  0.1440E+01
    -19.038  0.0000E+00  0.1440E+01
    -18.749  0.0000E+00  0.1440E+01
    -18.459  0.0000E+00  0.1440E+01
    -18.170  0.0000E+00  0.1440E+01
    -17.881  0.0000E+00  0.1440E+01
    -17.592  0.0000E+00  0.1440E+01
    -17.302  0.0000E+00  0.1440E+01
    -17.013  0.0000E+00  0.1440E+01
    -16.724  0.0000E+00  0.1440E+01
    -16.435  0.0000E+00  0.1440E+01
    -16.145  0.6399E-07  0.1440E+01
    -15.856  0.1270E-01  0.1444E+01
    -15.567  0.3339E-01  0.1453E+01
    -15.278  0.1097E-04  0.1453E+01
    -14.988  0.0000E+00  0.1453E+01
    -14.699  0.0000E+00  0.1453E+01
    -14.410  0.0000E+00  0.1453E+01
    -14.121  0.0000E+00  0.1453E+01
    -13.831  0.0000E+00  0.1453E+01
    -13.542  0.0000E+00  0.1453E+01
    -13.253  0.0000E+00  0.1453E+01
    -12.964  0.0000E+00  0.1453E+01
    -12.675  0.0000E+00  0.1453E+01
    -12.385  0.0000E+00  0.1453E+01
    -12.096  0.0000E+00  0.1453E+01
    -11.807  0.0000E+00  0.1453E+01
    -11.518  0.0000E+00  0.1453E+01
    -11.228  0.0000E+00  0.1453E+01
    -10.939  0.0000E+00  0.1453E+01
    -10.650  0.7473E-11  0.1453E+01
    -10.361  0.1153E-03  0.1453E+01
    -10.071  0.6123E-02  0.1455E+01
     -9.782  0.1394E-01  0.1459E+01
     -9.493  0.1540E-01  0.1464E+01
     -9.204  0.1877E-01  0.1469E+01
     -8.914  0.3304E-02  0.1470E+01
     -8.625  0.5168E-01  0.1485E+01
     -8.336  0.4689E-01  0.1499E+01
     -8.047  0.4293E-01  0.1511E+01
     -7.757  0.1175E-01  0.1514E+01
     -7.468  0.6524E-01  0.1533E+01
     -7.179  0.4606E-01  0.1547E+01
     -6.890  0.4128E-01  0.1558E+01
     -6.600  0.7885E-01  0.1581E+01
     -6.311  0.1098E+00  0.1613E+01
     -6.022  0.1226E+00  0.1648E+01
     -5.733  0.2496E+00  0.1721E+01
     -5.443  0.2786E+00  0.1801E+01
     -5.154  0.4577E+00  0.1934E+01
     -4.865  0.4586E+00  0.2066E+01
     -4.576  0.5007E+00  0.2211E+01
     -4.287  0.5689E+00  0.2376E+01
     -3.997  0.7671E+00  0.2598E+01
     -3.708  0.9837E+00  0.2882E+01
     -3.419  0.7045E+00  0.3086E+01
     -3.130  0.7649E+00  0.3307E+01
     -2.840  0.8898E+00  0.3564E+01
     -2.551  0.1045E+01  0.3867E+01
     -2.262  0.4637E+00  0.4001E+01
     -1.973  0.1651E+00  0.4049E+01
     -1.683  0.9374E-01  0.4076E+01
     -1.394  0.7310E-01  0.4097E+01
     -1.105  0.7475E-01  0.4118E+01
     -0.816  0.9880E-01  0.4147E+01
     -0.526  0.5605E-01  0.4163E+01
     -0.237  0.1161E+00  0.4197E+01
      0.052  0.4630E-01  0.4210E+01
      0.341  0.5511E-01  0.4226E+01
      0.631  0.9251E-01  0.4253E+01
      0.920  0.7184E-01  0.4274E+01
      1.209  0.6101E-01  0.4291E+01
      1.498  0.8870E-01  0.4317E+01
      1.788  0.6815E-01  0.4337E+01
      2.077  0.5726E-01  0.4353E+01
      2.366  0.3978E-01  0.4365E+01
      2.655  0.4869E-01  0.4379E+01
      2.945  0.5342E-01  0.4394E+01
      3.234  0.6084E-01  0.4412E+01
      3.523  0.5790E-01  0.4429E+01
      3.812  0.7256E-01  0.4450E+01
      4.102  0.9437E-01  0.4477E+01
      4.391  0.9549E-01  0.4504E+01
      4.680  0.1145E+00  0.4538E+01
      4.969  0.1272E+00  0.4574E+01
      5.258  0.1164E+00  0.4608E+01
      5.548  0.1466E+00  0.4650E+01
      5.837  0.1290E+00  0.4688E+01
      6.126  0.1319E+00  0.4726E+01
      6.415  0.1677E+00  0.4774E+01
      6.705  0.1392E+00  0.4815E+01
      6.994  0.1484E+00  0.4858E+01
      7.283  0.1237E+00  0.4893E+01
      7.572  0.1889E+00  0.4948E+01
      7.862  0.4125E-01  0.4960E+01
      8.151  0.7131E-04  0.4960E+01
      8.440  0.1178E-12  0.4960E+01
      8.729  0.0000E+00  0.4960E+01
      9.019  0.0000E+00  0.4960E+01
      9.308  0.0000E+00  0.4960E+01
      9.597  0.0000E+00  0.4960E+01
      9.886  0.0000E+00  0.4960E+01
     10.176  0.0000E+00  0.4960E+01
     10.465  0.0000E+00  0.4960E+01
     10.754  0.0000E+00  0.4960E+01
     11.043  0.0000E+00  0.4960E+01
     11.333  0.0000E+00  0.4960E+01
     11.622  0.0000E+00  0.4960E+01
     11.62178745    -75.15071067  301     -0.97201725      1.00000000
    -75.151  0.0000E+00  0.0000E+00  0.0000E+00
    -74.861  0.0000E+00  0.0000E+00  0.0000E+00
    -74.572  0.0000E+00  0.0000E+00  0.0000E+00
    -74.283  0.0000E+00  0.0000E+00  0.0000E+00
    -73.994  0.0000E+00  0.0000E+00  0.0000E+00
    -73.705  0.0000E+00  0.0000E+00  0.0000E+00
    -73.415  0.0000E+00  0.0000E+00  0.0000E+00
    -73.126  0.0000E+00  0.0000E+00  0.0000E+00
    -72.837  0.0000E+00  0.0000E+00  0.0000E+00
    -72.548  0.0000E+00  0.0000E+00  0.0000E+00
    -72.258  0.0000E+00  0.0000E+00  0.0000E+00
    -71.969  0.0000E+00  0.0000E+00  0.0000E+00
    -71.680  0.4600E-20  0.4120E-17  0.8503E-19
    -71.391  0.1289E-10  0.4414E-07  0.6573E-10
    -71.101  0.2480E-05  0.1500E-01  0.3985E-05
    -70.812  0.2267E-04  0.6919E+01  0.4691E-04
    -70.523  0.2518E-04  0.1372E+02  0.3377E-04
    -70.234  0.5377E-07  0.2298E-01  0.1933E-07
    -69.944  0.8413E-16  0.3174E-10  0.4301E-15
    -69.655  0.0000E+00  0.0000E+00  0.0000E+00
    -69.366  0.0000E+00  0.0000E+00  0.0000E+00
    -69.077  0.0000E+00  0.0000E+00  0.0000E+00
    -68.787  0.0000E+00  0.0000E+00  0.0000E+00
    -68.498  0.0000E+00  0.0000E+00  0.0000E+00
    -68.209  0.0000E+00  0.0000E+00  0.0000E+00
    -67.920  0.0000E+00  0.0000E+00  0.0000E+00
    -67.630  0.0000E+00  0.0000E+00  0.0000E+00
    -67.341  0.0000E+00  0.0000E+00  0.0000E+00
    -67.052  0.0000E+00  0.0000E+00  0.0000E+00
    -66.763  0.0000E+00  0.0000E+00  0.0000E+00
    -66.473  0.0000E+00  0.0000E+00  0.0000E+00
    -66.184  0.0000E+00  0.0000E+00  0.0000E+00
    -65.895  0.0000E+00  0.0000E+00  0.0000E+00
    -65.606  0.0000E+00  0.0000E+00  0.0000E+00
    -65.316  0.0000E+00  0.0000E+00  0.0000E+00
    -65.027  0.0000E+00  0.0000E+00  0.0000E+00
    -64.738  0.0000E+00  0.0000E+00  0.0000E+00
    -64.449  0.0000E+00  0.0000E+00  0.0000E+00
    -64.160  0.0000E+00  0.0000E+00  0.0000E+00
    -63.870  0.0000E+00  0.0000E+00  0.0000E+00
    -63.581  0.0000E+00  0.0000E+00  0.0000E+00
    -63.292  0.0000E+00  0.0000E+00  0.0000E+00
    -63.003  0.0000E+00  0.0000E+00  0.0000E+00
    -62.713  0.0000E+00  0.0000E+00  0.0000E+00
    -62.424  0.0000E+00  0.0000E+00  0.0000E+00
    -62.135  0.0000E+00  0.0000E+00  0.0000E+00
    -61.846  0.0000E+00  0.0000E+00  0.0000E+00
    -61.556  0.0000E+00  0.0000E+00  0.0000E+00
    -61.267  0.0000E+00  0.0000E+00  0.0000E+00
    -60.978  0.0000E+00  0.0000E+00  0.0000E+00
    -60.689  0.0000E+00  0.0000E+00  0.0000E+00
    -60.399  0.0000E+00  0.0000E+00  0.0000E+00
    -60.110  0.0000E+00  0.0000E+00  0.0000E+00
    -59.821  0.0000E+00  0.0000E+00  0.0000E+00
    -59.532  0.0000E+00  0.0000E+00  0.0000E+00
    -59.242  0.0000E+00  0.0000E+00  0.0000E+00
    -58.953  0.0000E+00  0.0000E+00  0.0000E+00
    -58.664  0.0000E+00  0.0000E+00  0.0000E+00
    -58.375  0.0000E+00  0.0000E+00  0.0000E+00
    -58.085  0.0000E+00  0.0000E+00  0.0000E+00
    -57.796  0.0000E+00  0.0000E+00  0.0000E+00
    -57.507  0.0000E+00  0.0000E+00  0.0000E+00
    -57.218  0.0000E+00  0.0000E+00  0.0000E+00
    -56.928  0.0000E+00  0.0000E+00  0.0000E+00
    -56.639  0.0000E+00  0.0000E+00  0.0000E+00
    -56.350  0.0000E+00  0.0000E+00  0.0000E+00
    -56.061  0.0000E+00  0.0000E+00  0.0000E+00
    -55.772  0.0000E+00  0.0000E+00  0.0000E+00
    -55.482  0.0000E+00  0.0000E+00  0.0000E+00
    -55.193  0.0000E+00  0.0000E+00  0.0000E+00
    -54.904  0.0000E+00  0.0000E+00  0.0000E+00
    -54.615  0.0000E+00  0.0000E+00  0.0000E+00
    -54.325  0.0000E+00  0.0000E+00  0.0000E+00
    -54.036  0.0000E+00  0.0000E+00  0.0000E+00
    -53.747  0.0000E+00  0.0000E+00  0.0000E+00
    -53.458  0.0000E+00  0.0000E+00  0.0000E+00
    -53.168  0.0000E+00  0.0000E+00  0.0000E+00
    -52.879  0.0000E+00  0.0000E+00  0.0000E+00
    -52.590  0.0000E+00  0.0000E+00  0.0000E+00
    -52.301  0.0000E+00  0.0000E+00  0.0000E+00
    -52.011  0.0000E+00  0.0000E+00  0.0000E+00
    -51.722  0.0000E+00  0.0000E+00  0.0000E+00
    -51.433  0.0000E+00  0.0000E+00  0.0000E+00
    -51.144  0.0000E+00  0.0000E+00  0.0000E+00
    -50.854  0.0000E+00  0.0000E+00  0.0000E+00
    -50.565  0.0000E+00  0.0000E+00  0.0000E+00
    -50.276  0.0000E+00  0.0000E+00  0.0000E+00
    -49.987  0.0000E+00  0.0000E+00  0.0000E+00
    -49.697  0.0000E+00  0.0000E+00  0.0000E+00
    -49.408  0.0000E+00  0.0000E+00  0.0000E+00
    -49.119  0.0000E+00  0.0000E+00  0.0000E+00
    -48.830  0.0000E+00  0.0000E+00  0.0000E+00
    -48.540  0.0000E+00  0.0000E+00  0.0000E+00
    -48.251  0.0000E+00  0.0000E+00  0.0000E+00
    -47.962  0.0000E+00  0.0000E+00  0.0000E+00
    -47.673  0.0000E+00  0.0000E+00  0.0000E+00
    -47.384  0.0000E+00  0.0000E+00  0.0000E+00
    -47.094  0.0000E+00  0.0000E+00  0.0000E+00
    -46.805  0.0000E+00  0.0000E+00  0.0000E+00
    -46.516  0.0000E+00  0.0000E+00  0.0000E+00
    -46.227  0.0000E+00  0.0000E+00  0.0000E+00
    -45.937  0.0000E+00  0.0000E+00  0.0000E+00
    -45.648  0.0000E+00  0.0000E+00  0.0000E+00
    -45.359  0.0000E+00  0.0000E+00  0.0000E+00
    -45.070  0.0000E+00  0.0000E+00  0.0000E+00
    -44.780  0.0000E+00  0.0000E+00  0.0000E+00
    -44.491  0.0000E+00  0.0000E+00  0.0000E+00
    -44.202  0.0000E+00  0.0000E+00  0.0000E+00
    -43.913  0.0000E+00  0.0000E+00  0.0000E+00
    -43.623  0.0000E+00  0.0000E+00  0.0000E+00
    -43.334  0.0000E+00  0.0000E+00  0.0000E+00
    -43.045  0.0000E+00  0.0000E+00  0.0000E+00
    -42.756  0.0000E+00  0.0000E+00  0.0000E+00
    -42.466  0.0000E+00  0.0000E+00  0.0000E+00
    -42.177  0.0000E+00  0.0000E+00  0.0000E+00
    -41.888  0.0000E+00  0.0000E+00  0.0000E+00
    -41.599  0.0000E+00  0.0000E+00  0.0000E+00
    -41.309  0.0000E+00  0.0000E+00  0.0000E+00
    -41.020  0.0000E+00  0.0000E+00  0.0000E+00
    -40.731  0.0000E+00  0.0000E+00  0.0000E+00
    -40.442  0.0000E+00  0.0000E+00  0.0000E+00
    -40.152  0.0000E+00  0.0000E+00  0.0000E+00
    -39.863  0.0000E+00  0.0000E+00  0.0000E+00
    -39.574  0.0000E+00  0.0000E+00  0.0000E+00
    -39.285  0.0000E+00  0.0000E+00  0.0000E+00
    -38.996  0.0000E+00  0.0000E+00  0.0000E+00
    -38.706  0.0000E+00  0.0000E+00  0.0000E+00
    -38.417  0.0000E+00  0.0000E+00  0.0000E+00
    -38.128  0.0000E+00  0.0000E+00  0.0000E+00
    -37.839  0.0000E+00  0.0000E+00  0.0000E+00
    -37.549  0.0000E+00  0.0000E+00  0.0000E+00
    -37.260  0.0000E+00  0.0000E+00  0.0000E+00
    -36.971  0.0000E+00  0.0000E+00  0.0000E+00
    -36.682  0.0000E+00  0.0000E+00  0.0000E+00
    -36.392  0.0000E+00  0.0000E+00  0.0000E+00
    -36.103  0.0000E+00  0.0000E+00  0.0000E+00
    -35.814  0.0000E+00  0.0000E+00  0.0000E+00
    -35.525  0.0000E+00  0.0000E+00  0.0000E+00
    -35.235  0.0000E+00  0.0000E+00  0.0000E+00
    -34.946  0.0000E+00  0.0000E+00  0.0000E+00
    -34.657  0.0000E+00  0.0000E+00  0.0000E+00
    -34.368  0.0000E+00  0.0000E+00  0.0000E+00
    -34.078  0.0000E+00  0.0000E+00  0.0000E+00
    -33.789  0.0000E+00  0.0000E+00  0.0000E+00
    -33.500  0.0000E+00  0.0000E+00  0.0000E+00
    -33.211  0.0000E+00  0.0000E+00  0.0000E+00
    -32.921  0.0000E+00  0.0000E+00  0.0000E+00
    -32.632  0.0000E+00  0.0000E+00  0.0000E+00
    -32.343  0.0000E+00  0.0000E+00  0.0000E+00
    -32.054  0.0000E+00  0.0000E+00  0.0000E+00
    -31.764  0.0000E+00  0.0000E+00  0.0000E+00
    -31.475  0.0000E+00  0.0000E+00  0.0000E+00
    -31.186  0.0000E+00  0.0000E+00  0.0000E+00
    -30.897  0.0000E+00  0.0000E+00  0.0000E+00
    -30.607  0.0000E+00  0.0000E+00  0.0000E+00
    -30.318  0.0000E+00  0.0000E+00  0.0000E+00
    -30.029  0.0000E+00  0.0000E+00  0.0000E+00
    -29.740  0.0000E+00  0.0000E+00  0.0000E+00
    -29.451  0.0000E+00  0.0000E+00  0.0000E+00
    -29.161  0.0000E+00  0.0000E+00  0.0000E+00
    -28.872  0.0000E+00  0.0000E+00  0.0000E+00
    -28.583  0.0000E+00  0.0000E+00  0.0000E+00
    -28.294  0.0000E+00  0.0000E+00  0.0000E+00
    -28.004  0.0000E+00  0.0000E+00  0.0000E+00
    -27.715  0.0000E+00  0.0000E+00  0.0000E+00
    -27.426  0.0000E+00  0.0000E+00  0.0000E+00
    -27.137  0.0000E+00  0.0000E+00  0.0000E+00
    -26.847  0.0000E+00  0.0000E+00  0.0000E+00
    -26.558  0.0000E+00  0.0000E+00  0.0000E+00
    -26.269  0.0000E+00  0.0000E+00  0.0000E+00
    -25.980  0.0000E+00  0.0000E+00  0.0000E+00
    -25.690  0.0000E+00  0.0000E+00  0.0000E+00
    -25.401  0.0000E+00  0.0000E+00  0.0000E+00
    -25.112  0.0000E+00  0.0000E+00  0.0000E+00
    -24.823  0.0000E+00  0.0000E+00  0.0000E+00
    -24.533  0.0000E+00  0.0000E+00  0.0000E+00
    -24.244  0.0000E+00  0.0000E+00  0.0000E+00
    -23.955  0.0000E+00  0.0000E+00  0.0000E+00
    -23.666  0.0000E+00  0.0000E+00  0.0000E+00
    -23.376  0.0000E+00  0.0000E+00  0.0000E+00
    -23.087  0.0000E+00  0.0000E+00  0.0000E+00
    -22.798  0.0000E+00  0.0000E+00  0.0000E+00
    -22.509  0.0000E+00  0.0000E+00  0.0000E+00
    -22.219  0.0000E+00  0.0000E+00  0.0000E+00
    -21.930  0.0000E+00  0.0000E+00  0.0000E+00
    -21.641  0.0000E+00  0.0000E+00  0.0000E+00
    -21.352  0.0000E+00  0.0000E+00  0.0000E+00
    -21.063  0.0000E+00  0.0000E+00  0.0000E+00
    -20.773  0.0000E+00  0.0000E+00  0.0000E+00
    -20.484  0.0000E+00  0.0000E+00  0.0000E+00
    -20.195  0.0000E+00  0.0000E+00  0.0000E+00
    -19.906  0.0000E+00  0.0000E+00  0.0000E+00
    -19.616  0.0000E+00  0.0000E+00  0.0000E+00
    -19.327  0.0000E+00  0.0000E+00  0.0000E+00
    -19.038  0.0000E+00  0.0000E+00  0.0000E+00
    -18.749  0.0000E+00  0.0000E+00  0.0000E+00
    -18.459  0.0000E+00  0.0000E+00  0.0000E+00
    -18.170  0.0000E+00  0.0000E+00  0.0000E+00
    -17.881  0.0000E+00  0.0000E+00  0.0000E+00
    -17.592  0.0000E+00  0.0000E+00  0.0000E+00
    -17.302  0.0000E+00  0.0000E+00  0.0000E+00
    -17.013  0.0000E+00  0.0000E+00  0.0000E+00
    -16.724  0.0000E+00  0.0000E+00  0.0000E+00
    -16.435  0.0000E+00  0.0000E+00  0.0000E+00
    -16.145  0.1944E-13  0.8755E-14  0.3632E-14
    -15.856  0.3837E-08  0.1733E-08  0.7209E-09
    -15.567  0.1007E-07  0.4551E-08  0.1895E-08
    -15.278  0.3292E-11  0.1491E-11  0.6226E-12
    -14.988  0.0000E+00  0.0000E+00  0.0000E+00
    -14.699  0.0000E+00  0.0000E+00  0.0000E+00
    -14.410  0.0000E+00  0.0000E+00  0.0000E+00
    -14.121  0.0000E+00  0.0000E+00  0.0000E+00
    -13.831  0.0000E+00  0.0000E+00  0.0000E+00
    -13.542  0.0000E+00  0.0000E+00  0.0000E+00
    -13.253  0.0000E+00  0.0000E+00  0.0000E+00
    -12.964  0.0000E+00  0.0000E+00  0.0000E+00
    -12.675  0.0000E+00  0.0000E+00  0.0000E+00
    -12.385  0.0000E+00  0.0000E+00  0.0000E+00
    -12.096  0.0000E+00  0.0000E+00  0.0000E+00
    -11.807  0.0000E+00  0.0000E+00  0.0000E+00
    -11.518  0.0000E+00  0.0000E+00  0.0000E+00
    -11.228  0.0000E+00  0.0000E+00  0.0000E+00
    -10.939  0.0000E+00  0.0000E+00  0.0000E+00
    -10.650  0.5449E-11  0.4947E-12  0.2780E-14
    -10.361  0.8407E-04  0.7632E-05  0.4293E-07
    -10.071  0.4376E-02  0.4423E-03  0.2258E-04
     -9.782  0.9799E-02  0.1075E-02  0.8904E-04
     -9.493  0.9752E-02  0.1474E-02  0.3615E-03
     -9.204  0.1221E-01  0.1946E-02  0.5888E-03
     -8.914  0.4395E-02  0.2482E-03  0.1838E-03
     -8.625  0.4666E-01  0.5223E-02  0.2870E-02
     -8.336  0.9598E-02  0.3411E-02  0.2865E-02
     -8.047  0.5370E-01  0.5308E-02  0.3745E-02
     -7.757  0.1077E-01  0.1789E-02  0.1469E-02
     -7.468  0.4836E-01  0.1218E-01  0.1459E-01
     -7.179  0.3110E-01  0.8412E-02  0.1551E-01
     -6.890  0.4352E-01  0.5039E-02  0.2174E-01
     -6.600  0.8500E-01  0.1278E-01  0.4436E-01
     -6.311  0.6217E-01  0.1856E-01  0.7831E-01
     -6.022  0.4675E-01  0.1895E-01  0.1125E+00
     -5.733  0.8850E-01  0.2747E-01  0.2910E+00
     -5.443  0.8971E-01  0.2769E-01  0.4370E+00
     -5.154  0.6461E-01  0.2810E-01  0.8878E+00
     -4.865  0.2651E-01  0.2459E-01  0.1143E+01
     -4.576  0.1737E-01  0.2688E-01  0.1489E+01
     -4.287  0.1545E-01  0.1825E-01  0.1514E+01
     -3.997  0.2397E-01  0.3047E-01  0.2525E+01
     -3.708  0.3924E-01  0.5603E-01  0.4460E+01
     -3.419  0.2070E-01  0.4421E-01  0.2956E+01
     -3.130  0.2661E-01  0.4671E-01  0.3243E+01
     -2.840  0.2011E-01  0.2807E-01  0.4041E+01
     -2.551  0.2700E-01  0.2238E-01  0.4628E+01
     -2.262  0.1990E-01  0.1344E-01  0.1775E+01
     -1.973  0.2016E-01  0.1766E-01  0.4137E+00
     -1.683  0.3014E-01  0.2601E-01  0.2186E+00
     -1.394  0.3113E-01  0.3894E-01  0.1496E+00
     -1.105  0.2289E-01  0.2859E-01  0.1290E+00
     -0.816  0.2828E-01  0.3590E-01  0.1841E+00
     -0.526  0.2360E-01  0.3576E-01  0.8944E-01
     -0.237  0.5366E-01  0.8391E-01  0.1894E+00
      0.052  0.1033E-01  0.2443E-01  0.6096E-01
      0.341  0.1134E-01  0.4394E-01  0.4718E-01
      0.631  0.3078E-01  0.9404E-01  0.9590E-01
      0.920  0.1672E-01  0.4891E-01  0.7548E-01
      1.209  0.1773E-01  0.4785E-01  0.6370E-01
      1.498  0.1608E-01  0.8796E-01  0.1002E+00
      1.788  0.1693E-01  0.4359E-01  0.7087E-01
      2.077  0.1503E-01  0.4899E-01  0.5330E-01
      2.366  0.5045E-02  0.2447E-01  0.2372E-01
      2.655  0.4520E-02  0.4556E-01  0.3382E-01
      2.945  0.4138E-02  0.5222E-01  0.4238E-01
      3.234  0.1290E-01  0.4349E-01  0.4225E-01
      3.523  0.1723E-01  0.2023E-01  0.3182E-01
      3.812  0.1871E-01  0.2913E-01  0.4651E-01
      4.102  0.2716E-01  0.2424E-01  0.4931E-01
      4.391  0.6976E-01  0.3458E-01  0.5402E-01
      4.680  0.6483E-01  0.5450E-01  0.5601E-01
      4.969  0.7584E-01  0.4533E-01  0.7500E-01
      5.258  0.6891E-01  0.3328E-01  0.7785E-01
      5.548  0.7116E-01  0.8570E-01  0.7674E-01
      5.837  0.4205E-01  0.6103E-01  0.5628E-01
      6.126  0.4705E-01  0.7158E-01  0.5613E-01
      6.415  0.4788E-01  0.7696E-01  0.6902E-01
      6.705  0.3108E-01  0.5167E-01  0.4709E-01
      6.994  0.2965E-01  0.7272E-01  0.4559E-01
      7.283  0.4653E-01  0.5232E-01  0.2920E-01
      7.572  0.7045E-01  0.8807E-01  0.6854E-01
      7.862  0.1175E-01  0.1408E-01  0.1610E-01
      8.151  0.8615E-05  0.1790E-04  0.2888E-04
      8.440  0.1309E-13  0.2595E-13  0.4765E-13
      8.729  0.0000E+00  0.0000E+00  0.0000E+00
      9.019  0.0000E+00  0.0000E+00  0.0000E+00
      9.308  0.0000E+00  0.0000E+00  0.0000E+00
      9.597  0.0000E+00  0.0000E+00  0.0000E+00
      9.886  0.0000E+00  0.0000E+00  0.0000E+00
     10.176  0.0000E+00  0.0000E+00  0.0000E+00
     10.465  0.0000E+00  0.0000E+00  0.0000E+00
     10.754  0.0000E+00  0.0000E+00  0.0000E+00
     11.043  0.0000E+00  0.0000E+00  0.0000E+00
     11.333  0.0000E+00  0.0000E+00  0.0000E+00
     11.622  0.0000E+00  0.0000E+00  0.0000E+00
     11.62178745    -75.15071067  301     -0.97201725      1.00000000
    -75.151  0.0000E+00  0.0000E+00  0.0000E+00
    -74.861  0.0000E+00  0.0000E+00  0.0000E+00
    -74.572  0.0000E+00  0.0000E+00  0.0000E+00
    -74.283  0.0000E+00  0.0000E+00  0.0000E+00
    -73.994  0.0000E+00  0.0000E+00  0.0000E+00
    -73.705  0.0000E+00  0.0000E+00  0.0000E+00
    -73.415  0.0000E+00  0.0000E+00  0.0000E+00
    -73.126  0.0000E+00  0.0000E+00  0.0000E+00
    -72.837  0.0000E+00  0.0000E+00  0.0000E+00
    -72.548  0.0000E+00  0.0000E+00  0.0000E+00
    -72.258  0.0000E+00  0.0000E+00  0.0000E+00
    -71.969  0.0000E+00  0.0000E+00  0.0000E+00
    -71.680  0.2251E-19  0.5340E-16  0.7646E-19
    -71.391  0.1106E-09  0.4065E-06  0.1898E-09
    -71.101  0.3586E-05  0.1928E-01  0.5850E-05
    -70.812  0.2226E-04  0.7396E+01  0.4609E-04
    -70.523  0.2616E-04  0.1324E+02  0.3321E-04
    -70.234  0.4535E-07  0.1754E-01  0.1610E-07
    -69.944  0.5220E-16  0.1750E-10  0.2415E-15
    -69.655  0.0000E+00  0.0000E+00  0.0000E+00
    -69.366  0.0000E+00  0.0000E+00  0.0000E+00
    -69.077  0.0000E+00  0.0000E+00  0.0000E+00
    -68.787  0.0000E+00  0.0000E+00  0.0000E+00
    -68.498  0.0000E+00  0.0000E+00  0.0000E+00
    -68.209  0.0000E+00  0.0000E+00  0.0000E+00
    -67.920  0.0000E+00  0.0000E+00  0.0000E+00
    -67.630  0.0000E+00  0.0000E+00  0.0000E+00
    -67.341  0.0000E+00  0.0000E+00  0.0000E+00
    -67.052  0.0000E+00  0.0000E+00  0.0000E+00
    -66.763  0.0000E+00  0.0000E+00  0.0000E+00
    -66.473  0.0000E+00  0.0000E+00  0.0000E+00
    -66.184  0.0000E+00  0.0000E+00  0.0000E+00
    -65.895  0.0000E+00  0.0000E+00  0.0000E+00
    -65.606  0.0000E+00  0.0000E+00  0.0000E+00
    -65.316  0.0000E+00  0.0000E+00  0.0000E+00
    -65.027  0.0000E+00  0.0000E+00  0.0000E+00
    -64.738  0.0000E+00  0.0000E+00  0.0000E+00
    -64.449  0.0000E+00  0.0000E+00  0.0000E+00
    -64.160  0.0000E+00  0.0000E+00  0.0000E+00
    -63.870  0.0000E+00  0.0000E+00  0.0000E+00
    -63.581  0.0000E+00  0.0000E+00  0.0000E+00
    -63.292  0.0000E+00  0.0000E+00  0.0000E+00
    -63.003  0.0000E+00  0.0000E+00  0.0000E+00
    -62.713  0.0000E+00  0.0000E+00  0.0000E+00
    -62.424  0.0000E+00  0.0000E+00  0.0000E+00
    -62.135  0.0000E+00  0.0000E+00  0.0000E+00
    -61.846  0.0000E+00  0.0000E+00  0.0000E+00
    -61.556  0.0000E+00  0.0000E+00  0.0000E+00
    -61.267  0.0000E+00  0.0000E+00  0.0000E+00
    -60.978  0.0000E+00  0.0000E+00  0.0000E+00
    -60.689  0.0000E+00  0.0000E+00  0.0000E+00
    -60.399  0.0000E+00  0.0000E+00  0.0000E+00
    -60.110  0.0000E+00  0.0000E+00  0.0000E+00
    -59.821  0.0000E+00  0.0000E+00  0.0000E+00
    -59.532  0.0000E+00  0.0000E+00  0.0000E+00
    -59.242  0.0000E+00  0.0000E+00  0.0000E+00
    -58.953  0.0000E+00  0.0000E+00  0.0000E+00
    -58.664  0.0000E+00  0.0000E+00  0.0000E+00
    -58.375  0.0000E+00  0.0000E+00  0.0000E+00
    -58.085  0.0000E+00  0.0000E+00  0.0000E+00
    -57.796  0.0000E+00  0.0000E+00  0.0000E+00
    -57.507  0.0000E+00  0.0000E+00  0.0000E+00
    -57.218  0.0000E+00  0.0000E+00  0.0000E+00
    -56.928  0.0000E+00  0.0000E+00  0.0000E+00
    -56.639  0.0000E+00  0.0000E+00  0.0000E+00
    -56.350  0.0000E+00  0.0000E+00  0.0000E+00
    -56.061  0.0000E+00  0.0000E+00  0.0000E+00
    -55.772  0.0000E+00  0.0000E+00  0.0000E+00
    -55.482  0.0000E+00  0.0000E+00  0.0000E+00
    -55.193  0.0000E+00  0.0000E+00  0.0000E+00
    -54.904  0.0000E+00  0.0000E+00  0.0000E+00
    -54.615  0.0000E+00  0.0000E+00  0.0000E+00
    -54.325  0.0000E+00  0.0000E+00  0.0000E+00
    -54.036  0.0000E+00  0.0000E+00  0.0000E+00
    -53.747  0.0000E+00  0.0000E+00  0.0000E+00
    -53.458  0.0000E+00  0.0000E+00  0.0000E+00
    -53.168  0.0000E+00  0.0000E+00  0.0000E+00
    -52.879  0.0000E+00  0.0000E+00  0.0000E+00
    -52.590  0.0000E+00  0.0000E+00  0.0000E+00
    -52.301  0.0000E+00  0.0000E+00  0.0000E+00
    -52.011  0.0000E+00  0.0000E+00  0.0000E+00
    -51.722  0.0000E+00  0.0000E+00  0.0000E+00
    -51.433  0.0000E+00  0.0000E+00  0.0000E+00
    -51.144  0.0000E+00  0.0000E+00  0.0000E+00
    -50.854  0.0000E+00  0.0000E+00  0.0000E+00
    -50.565  0.0000E+00  0.0000E+00  0.0000E+00
    -50.276  0.0000E+00  0.0000E+00  0.0000E+00
    -49.987  0.0000E+00  0.0000E+00  0.0000E+00
    -49.697  0.0000E+00  0.0000E+00  0.0000E+00
    -49.408  0.0000E+00  0.0000E+00  0.0000E+00