   38   38  150    1
  0.3386168E+02  0.7529542E-09  0.7529542E-09  0.2620742E-08  0.5000000E-15
  1.000000000000000E-004
  CAR 
 unknown system                          
    620     10    372
 
  0.0000000E+00  0.0000000E+00  0.0000000E+00  0.6250000E-01
    1      -71.203700
    2      -71.194788
    3      -71.157894
    4      -71.152563
    5      -71.119648
    6      -71.113172
    7      -71.107806
    8      -71.103199
    9      -71.100384
   10      -71.087237
   11      -71.068761
   12      -71.063800
   13      -71.060222
   14      -71.057661
   15      -71.054369
   16      -71.048717
   17      -71.048438
   18      -71.046955
   19      -71.046439
   20      -71.046079
   21      -71.044524
   22      -71.041361
   23      -71.040269
   24      -71.038560
   25      -71.036003
   26      -71.035486
   27      -71.033244
   28      -71.032602
   29      -71.030611
   30      -71.029937
   31      -71.027119
   32      -71.022766
   33      -71.016928
   34      -71.015942
   35      -71.008047
   36      -71.004507
   37      -71.002846
   38      -71.000084
   39      -70.995694
   40      -70.995495
   41      -70.994630
   42      -70.991185
   43      -70.990307
   44      -70.989680
   45      -70.986753
   46      -70.982889
   47      -70.982048
   48      -70.979954
   49      -70.979297
   50      -70.978161
   51      -70.968371
   52      -70.968175
   53      -70.966684
   54      -70.963766
   55      -70.957733
   56      -70.945729
   57      -70.943280
   58      -70.939433
   59      -70.936298
   60      -70.927703
   61      -70.923171
   62      -70.916423
   63      -70.908632
   64      -70.905939
   65      -70.898675
   66      -70.891075
   67      -70.839678
   68      -70.836487
   69      -70.832730
   70      -70.832692
   71      -70.832020
   72      -70.828229
   73      -70.826285
   74      -70.823350
   75      -70.820327
   76      -70.819612
   77      -70.799420
   78      -70.787596
   79      -70.781510
   80      -70.781288
   81      -70.778162
   82      -70.777143
   83      -70.773664
   84      -70.772424
   85      -70.770001
   86      -70.769466
   87      -70.768625
   88      -70.754625
   89      -70.754288
   90      -70.739152
   91      -70.736014
   92      -70.734616
   93      -70.724050
   94      -70.720954
   95      -70.720173
   96      -70.718108
   97      -70.717911
   98      -70.715079
   99      -70.712658
  100      -70.702213
  101      -70.699675
  102      -70.699615
  103      -70.691813
  104      -70.685594
  105      -70.678992
  106      -70.675761
  107      -70.626694
  108      -70.622934
  109      -15.815399
  110      -10.236796
  111       -8.940555
  112       -8.401355
  113       -7.403352
  114       -7.236433
  115       -7.147863
  116       -7.138161
  117       -7.109108
  118       -7.093600
  119       -7.042943
  120       -6.639635
  121       -6.580133
  122       -6.421337
  123       -6.362580
  124       -6.359907
  125       -6.350155
  126       -6.196973
  127       -5.916695
  128       -5.912757
  129       -5.735359
  130       -5.654357
  131       -5.625644
  132       -5.494296
  133       -5.433099
  134       -5.367802
  135       -5.311603
  136       -5.296385
  137       -5.294262
  138       -5.266903
  139       -5.242167
  140       -5.219821
  141       -5.155653
  142       -5.143257
  143       -5.106426
  144       -5.097431
  145       -5.095814
  146       -5.094157
  147       -5.075048
  148       -5.060209
  149       -5.048289
  150       -5.031946
  151       -5.024198
  152       -4.992727
  153       -4.990728
  154       -4.973980
  155       -4.946565
  156       -4.916473
  157       -4.844744
  158       -4.812201
  159       -4.806181
  160       -4.783334
  161       -4.775541
  162       -4.772205
  163       -4.754852
  164       -4.739408
  165       -4.638462
  166       -4.623234
  167       -4.583532
  168       -4.460876
  169       -4.416007
  170       -4.407403
  171       -4.397037
  172       -4.373633
  173       -4.350741
  174       -4.322726
  175       -4.307108
  176       -4.290733
  177       -4.270838
  178       -4.246323
  179       -4.243603
  180       -4.233999
  181       -4.211137
  182       -4.205796
  183       -4.187569
  184       -4.176407
  185       -4.161700
  186       -4.150281
  187       -4.051275
  188       -4.045396
  189       -4.028925
  190       -4.023492
  191       -4.017622
  192       -3.986126
  193       -3.984200
  194       -3.976229
  195       -3.973393
  196       -3.972871
  197       -3.920675
  198       -3.907468
  199       -3.873295
  200       -3.872311
  201       -3.868548
  202       -3.851344
  203       -3.847932
  204       -3.836286
  205       -3.828671
  206       -3.818487
  207       -3.816121
  208       -3.812434
  209       -3.810936
  210       -3.803832
  211       -3.795455
  212       -3.770076
  213       -3.769121
  214       -3.748023
  215       -3.743873
  216       -3.737331
  217       -3.694383
  218       -3.679231
  219       -3.659929
  220       -3.604144
  221       -3.592879
  222       -3.531110
  223       -3.520001
  224       -3.505495
  225       -3.490113
  226       -3.424677
  227       -3.401385
  228       -3.399264
  229       -3.388074
  230       -3.380218
  231       -3.355529
  232       -3.346281
  233       -3.336737
  234       -3.323667
  235       -3.308862
  236       -3.302850
  237       -3.295594
  238       -3.291162
  239       -3.225157
  240       -3.218292
  241       -3.173553
  242       -3.166826
  243       -3.161436
  244       -3.158800
  245       -3.138065
  246       -3.082131
  247       -3.069822
  248       -3.060743
  249       -3.050487
  250       -3.048202
  251       -3.035104
  252       -3.032613
  253       -3.022105
  254       -3.008556
  255       -2.986179
  256       -2.955879
  257       -2.928368
  258       -2.924451
  259       -2.921440
  260       -2.914749
  261       -2.891578
  262       -2.889731
  263       -2.865711
  264       -2.862750
  265       -2.848329
  266       -2.844962
  267       -2.841684
  268       -2.837554
  269       -2.833652
  270       -2.823326
  271       -2.812831
  272       -2.802881
  273       -2.793174
  274       -2.782411
  275       -2.768260
  276       -2.763610
  277       -2.752326
  278       -2.747208
  279       -2.742207
  280       -2.736007
  281       -2.733066
  282       -2.725713
  283       -2.714067
  284       -2.700603
  285       -2.697095
  286       -2.692181
  287       -2.686945
  288       -2.685525
  289       -2.681462
  290       -2.671625
  291       -2.668633
  292       -2.660413
  293       -2.658907
  294       -2.649016
  295       -2.645808
  296       -2.624536
  297       -2.604156
  298       -2.591813
  299       -2.579129
  300       -2.566876
  301       -2.541659
  302       -2.532893
  303       -2.524742
  304       -2.507085
  305       -2.500245
  306       -2.276439
  307       -2.259115
  308       -1.989429
  309       -1.762552
  310       -1.397553
  311       -1.358541
  312       -1.351686
  313       -0.998416
  314       -0.863205
  315       -0.833616
  316        0.446875
  317        0.899497
  318        1.037824
  319        1.125672
  320        1.560373
  321        1.565030
  322        2.586581
  323        2.601852
  324        2.608806
  325        2.650280
  326        2.757232
  327        2.885857
  328        2.922434
  329        3.195941
  330        3.218561
  331        3.369636
  332        3.602930
  333        3.615758
  334        3.626844
  335        3.676563
  336        3.709280
  337        3.946986
  338        4.046774
  339        4.056136
  340        4.424505
  341        4.433776
  342        4.517155
  343        4.581767
  344        4.612650
  345        4.831819
  346        5.430604
  347        5.554248
  348        5.747573
  349        5.795798
  350        5.947853
  351        6.070806
  352        6.088793
  353        6.110491
  354        6.228783
  355        6.236517
  356        6.240610
  357        6.437908
  358        6.741374
  359        6.760696
  360        6.786621
  361        6.826075
  362        6.850964
  363        6.967331
  364        7.025266
  365        7.151342
  366        7.199981
  367        7.258412
  368        7.292392
  369        7.298565
  370        7.381799
  371        7.468497
  372        7.516245
 
  0.2500000E+00  0.5551115E-16  0.0000000E+00  0.1250000E+00
    1      -71.205124
    2      -71.193278
    3      -71.158052
    4      -71.152593
    5      -71.119231
    6      -71.112358
    7      -71.107954
    8      -71.104753
    9      -71.098662
   10      -71.089801
   11      -71.072046
   12      -71.066464
   13      -71.062700
   14      -71.058678
   15      -71.057037
   16      -71.055182
   17      -71.052599
   18      -71.049560
   19      -71.047991
   20      -71.046835
   21      -71.041439
   22      -71.037187
   23      -71.036723
   24      -71.035311
   25      -71.033053
   26      -71.031443
   27      -71.030048
   28      -71.029758
   29      -71.028346
   30      -71.026323
   31      -71.022520
   32      -71.020793
   33      -71.015962
   34      -71.012975
   35      -71.007772
   36      -71.004641
   37      -71.001890
   38      -70.999554
   39      -70.998343
   40      -70.996910
   41      -70.996419
   42      -70.992210
   43      -70.989650
   44      -70.988021
   45      -70.985500
   46      -70.982518
   47      -70.981818
   48      -70.980545
   49      -70.977832
   50      -70.975064
   51      -70.971398
   52      -70.968332
   53      -70.965527
   54      -70.962774
   55      -70.958911
   56      -70.945690
   57      -70.944169
   58      -70.941606
   59      -70.936760
   60      -70.926672
   61      -70.923046
   62      -70.918238
   63      -70.908550
   64      -70.905730
   65      -70.899562
   66      -70.891869
   67      -70.850993
   68      -70.843828
   69      -70.841051
   70      -70.835824
   71      -70.835638
   72      -70.820483
   73      -70.819087
   74      -70.812426
   75      -70.808749
   76      -70.804098
   77      -70.802255
   78      -70.788826
   79      -70.784992
   80      -70.781972
   81      -70.779555
   82      -70.778468
   83      -70.775134
   84      -70.772182
   85      -70.769633
   86      -70.767035
   87      -70.764497
   88      -70.760061
   89      -70.755528
   90      -70.739837
   91      -70.735697
   92      -70.734421
   93      -70.723700
   94      -70.721475
   95      -70.721272
   96      -70.718427
   97      -70.717523
   98      -70.715114
   99      -70.712604
  100      -70.702079
  101      -70.700042
  102      -70.699566
  103      -70.691729
  104      -70.685447
  105      -70.678872
  106      -70.675724
  107      -70.626525
  108      -70.622916
  109      -15.814464
  110      -10.010279
  111       -8.755753
  112       -8.458056
  113       -8.258630
  114       -7.568532
  115       -7.538812
  116       -7.286113
  117       -7.164066
  118       -6.671091
  119       -6.588278
  120       -6.522652
  121       -6.484786
  122       -6.359264
  123       -6.279590
  124       -6.171528
  125       -6.061658
  126       -6.020223
  127       -5.973384
  128       -5.835394
  129       -5.726824
  130       -5.634158
  131       -5.574541
  132       -5.487215
  133       -5.460834
  134       -5.415660
  135       -5.377550
  136       -5.370450
  137       -5.361514
  138       -5.343534
  139       -5.325140
  140       -5.305195
  141       -5.280805
  142       -5.259497
  143       -5.194461
  144       -5.179410
  145       -5.159576
  146       -5.150153
  147       -5.111602
  148       -5.085205
  149       -5.038150
  150       -5.025220
  151       -4.993000
  152       -4.958715
  153       -4.941444
  154       -4.903528
  155       -4.895569
  156       -4.852563
  157       -4.839987
  158       -4.824074
  159       -4.791007
  160       -4.765797
  161       -4.741776
  162       -4.694885
  163       -4.671701
  164       -4.645183
  165       -4.633000
  166       -4.612505
  167       -4.543304
  168       -4.533125
  169       -4.527196
  170       -4.482539
  171       -4.457765
  172       -4.424338
  173       -4.411110
  174       -4.370709
  175       -4.322691
  176       -4.313688
  177       -4.286404
  178       -4.278278
  179       -4.265914
  180       -4.249699
  181       -4.230186
  182       -4.209942
  183       -4.182294
  184       -4.167714
  185       -4.143224
  186       -4.135274
  187       -4.113159
  188       -4.070636
  189       -4.057854
  190       -4.046460
  191       -4.032103
  192       -4.011543
  193       -3.988897
  194       -3.975931
  195       -3.961025
  196       -3.958692
  197       -3.938942
  198       -3.933306
  199       -3.919059
  200       -3.913124
  201       -3.908349
  202       -3.905147
  203       -3.890558
  204       -3.880285
  205       -3.869923
  206       -3.861193
  207       -3.850304
  208       -3.841951
  209       -3.829923
  210       -3.807480
  211       -3.790414
  212       -3.780244
  213       -3.753210
  214       -3.741071
  215       -3.727646
  216       -3.714631
  217       -3.704763
  218       -3.699828
  219       -3.697987
  220       -3.691565
  221       -3.671473
  222       -3.648046
  223       -3.609978
  224       -3.564785
  225       -3.553505
  226       -3.526597
  227       -3.488244
  228       -3.468447
  229       -3.442250
  230       -3.418148
  231       -3.409698
  232       -3.391897
  233       -3.374916
  234       -3.368250
  235       -3.349424
  236       -3.325097
  237       -3.318103
  238       -3.298171
  239       -3.268935
  240       -3.248980
  241       -3.237512
  242       -3.230703
  243       -3.208339
  244       -3.178895
  245       -3.169361
  246       -3.151079
  247       -3.132176
  248       -3.116986
  249       -3.090677
  250       -3.088341
  251       -3.075434
  252       -3.063388
  253       -3.044205
  254       -3.032291
  255       -3.024430
  256       -3.008190
  257       -2.989052
  258       -2.967052
  259       -2.956016
  260       -2.942913
  261       -2.937049
  262       -2.915650
  263       -2.903329
  264       -2.888882
  265       -2.876339
  266       -2.870161
  267       -2.849819
  268       -2.828927
  269       -2.811516
  270       -2.800802
  271       -2.793262
  272       -2.781112
  273       -2.756934
  274       -2.746877
  275       -2.737866
  276       -2.722036
  277       -2.717490
  278       -2.691787
  279       -2.680247
  280       -2.674199
  281       -2.668021
  282       -2.657806
  283       -2.644405
  284       -2.637439
  285       -2.628459
  286       -2.620875
  287       -2.614022
  288       -2.608085
  289       -2.603083
  290       -2.590007
  291       -2.568710
  292       -2.551609
  293       -2.545417
  294       -2.540059
  295       -2.524755
  296       -2.517222
  297       -2.502884
  298       -2.473281
  299       -2.416508
  300       -2.352850
  301       -2.350264
  302       -2.257422
  303       -2.185980
  304       -2.158315
  305       -2.065148
  306       -1.854697
  307       -1.795485
  308       -1.741015
  309       -1.570191
  310       -1.481704
  311       -1.279762
  312       -0.904096
  313       -0.509280
  314       -0.407693
  315       -0.328579
  316        0.205428
  317        0.485932
  318        0.603942
  319        0.641070
  320        0.955602
  321        1.315520
  322        1.356751
  323        1.590047
  324        1.792041
  325        1.938205
  326        2.270248
  327        2.413408
  328        2.574699
  329        2.852301
  330        3.177816
  331        3.220205
  332        3.309106
  333        3.557918
  334        3.678829
  335        3.971439
  336        4.126979
  337        4.216063
  338        4.381184
  339        4.632847
  340        4.661790
  341        4.706042
  342        4.799379
  343        4.988139
  344        5.074695
  345        5.170277
  346        5.247585
  347        5.387905
  348        5.462933
  349        5.508148
  350        5.683495
  351        5.737898
  352        5.881686
  353        5.915285
  354        5.968390
  355        6.075332
  356        6.242209
  357        6.324480
  358        6.348222
  359        6.396927
  360        6.429307
  361        6.550641
  362        6.611188
  363        6.683773
  364        6.768854
  365        6.885518
  366        7.103993
  367        7.198843
  368        7.311825
  369        7.327860
  370        7.446504
  371        7.462328
  372        7.516218
 
  0.5000000E+00  0.1110223E-15  0.0000000E+00  0.6250000E-01
    1      -71.206483
    2      -71.192214
    3      -71.158469
    4      -71.152895
    5      -71.119050
    6      -71.111244
    7      -71.109240
    8      -71.105429
    9      -71.097574
   10      -71.092422
   11      -71.074844
   12      -71.069693
   13      -71.063661
   14      -71.060354
   15      -71.059576
   16      -71.057781
   17      -71.054759
   18      -71.050665
   19      -71.048845
   20      -71.048223
   21      -71.040189
   22      -71.036096
   23      -71.035358
   24      -71.034920
   25      -71.032402
   26      -71.030324
   27      -71.029904
   28      -71.027988
   29      -71.023787
   30      -71.021566
   31      -71.019269
   32      -71.013699
   33      -71.010424
   34      -71.009577
   35      -71.006771
   36      -71.004888
   37      -71.004538
   38      -71.001314
   39      -70.999144
   40      -70.997692
   41      -70.995758
   42      -70.992888
   43      -70.990864
   44      -70.989183
   45      -70.986403
   46      -70.983975
   47      -70.981322
   48      -70.980250
   49      -70.978188
   50      -70.975308
   51      -70.971712
   52      -70.969894
   53      -70.965008
   54      -70.960172
   55      -70.957416
   56      -70.948151
   57      -70.945063
   58      -70.943341
   59      -70.938394
   60      -70.926006
   61      -70.922962
   62      -70.920380
   63      -70.908622
   64      -70.905635
   65      -70.901140
   66      -70.892933
   67      -70.856898
   68      -70.847363
   69      -70.844715
   70      -70.839742
   71      -70.839648
   72      -70.814315
   73      -70.813213
   74      -70.804767
   75      -70.800252
   76      -70.795245
   77      -70.793094
   78      -70.792866
   79      -70.789432
   80      -70.784481
   81      -70.781701
   82      -70.780262
   83      -70.777365
   84      -70.774571
   85      -70.770517
   86      -70.769433
   87      -70.763377
   88      -70.758966
   89      -70.758279
   90      -70.741062
   91      -70.735959
   92      -70.734364
   93      -70.723910
   94      -70.723435
   95      -70.721671
   96      -70.718687
   97      -70.717238
   98      -70.715117
   99      -70.712517
  100      -70.702023
  101      -70.700764
  102      -70.699448
  103      -70.691626
  104      -70.685403
  105      -70.678799
  106      -70.675658
  107      -70.626458
  108      -70.622863
  109      -15.813568
  110       -9.381589
  111       -9.320711
  112       -8.513787
  113       -8.116856
  114       -8.065434
  115       -7.720516
  116       -7.638159
  117       -6.887490
  118       -6.735528
  119       -6.684235
  120       -6.456905
  121       -6.113425
  122       -5.993093
  123       -5.979956
  124       -5.929593
  125       -5.879201
  126       -5.839863
  127       -5.834408
  128       -5.818830
  129       -5.760115
  130       -5.720012
  131       -5.669414
  132       -5.656621
  133       -5.634396
  134       -5.620846
  135       -5.502770
  136       -5.481670
  137       -5.451507
  138       -5.428124
  139       -5.402432
  140       -5.369598
  141       -5.305699
  142       -5.238596
  143       -5.237238
  144       -5.211259
  145       -5.188086
  146       -5.178448
  147       -5.155978
  148       -5.061519
  149       -5.046875
  150       -5.027711
  151       -4.986019
  152       -4.977255
  153       -4.910663
  154       -4.890288
  155       -4.845100
  156       -4.829184
  157       -4.817318
  158       -4.788503
  159       -4.779300
  160       -4.767936
  161       -4.707162
  162       -4.650571
  163       -4.635728
  164       -4.609406
  165       -4.586664
  166       -4.575167
  167       -4.560543
  168       -4.545371
  169       -4.537570
  170       -4.501689
  171       -4.466254
  172       -4.430749
  173       -4.420339
  174       -4.391622
  175       -4.348550
  176       -4.341043
  177       -4.320282
  178       -4.299649
  179       -4.281075
  180       -4.271386
  181       -4.262429
  182       -4.243975
  183       -4.237990
  184       -4.211693
  185       -4.200018
  186       -4.193662
  187       -4.184475
  188       -4.175384
  189       -4.157146
  190       -4.120294
  191       -4.110145
  192       -4.099038
  193       -4.041350
  194       -4.035230
  195       -4.020800
  196       -4.003973
  197       -3.995647
  198       -3.975413
  199       -3.952016
  200       -3.943827
  201       -3.930556
  202       -3.903992
  203       -3.886927
  204       -3.862655
  205       -3.827110
  206       -3.817065
  207       -3.812599
  208       -3.803283
  209       -3.782710
  210       -3.773733
  211       -3.766636
  212       -3.753211
  213       -3.749821
  214       -3.727307
  215       -3.716925
  216       -3.710888
  217       -3.699021
  218       -3.690824
  219       -3.653180
  220       -3.634656
  221       -3.620754
  222       -3.591306
  223       -3.569323
  224       -3.554634
  225       -3.539960
  226       -3.519240
  227       -3.512295
  228       -3.505507
  229       -3.491961
  230       -3.482990
  231       -3.477035
  232       -3.450568
  233       -3.437540
  234       -3.429480
  235       -3.425017
  236       -3.394058
  237       -3.387591
  238       -3.379699
  239       -3.359871
  240       -3.352659
  241       -3.349832
  242       -3.302323
  243       -3.287469
  244       -3.268510
  245       -3.224817
  246       -3.187591
  247       -3.179285
  248       -3.149885
  249       -3.140556
  250       -3.121993
  251       -3.090707
  252       -3.077847
  253       -3.046693
  254       -3.031778
  255       -3.020340
  256       -3.001339
  257       -2.974190
  258       -2.971278
  259       -2.966055
  260       -2.952473
  261       -2.940196
  262       -2.935279
  263       -2.930658
  264       -2.903835
  265       -2.893906
  266       -2.887313
  267       -2.879867
  268       -2.845209
  269       -2.813235
  270       -2.796905
  271       -2.787767
  272       -2.766470
  273       -2.750498
  274       -2.738333
  275       -2.711969
  276       -2.700797
  277       -2.676728
  278       -2.672327
  279       -2.660139
  280       -2.649281
  281       -2.642351
  282       -2.633258
  283       -2.624387
  284       -2.604437
  285       -2.588790
  286       -2.576525
  287       -2.563669
  288       -2.555622
  289       -2.551715
  290       -2.537291
  291       -2.534598
  292       -2.527579
  293       -2.487065
  294       -2.476004
  295       -2.465838
  296       -2.464510
  297       -2.446577
  298       -2.412250
  299       -2.321553
  300       -2.267204
  301       -2.181075
  302       -2.118262
  303       -1.812573
  304       -1.520576
  305       -1.403331
  306       -1.161605
  307       -1.078422
  308       -1.058739
  309       -1.006049
  310       -0.990032
  311       -0.844501
  312       -0.556617
  313       -0.498277
  314       -0.331160
  315       -0.299932
  316       -0.296319
  317        0.034789
  318        0.329135
  319        0.522582
  320        0.540163
  321        0.644369
  322        0.700024
  323        0.809001
  324        0.990692
  325        1.228422
  326        1.264324
  327        2.362230
  328        2.654414
  329        2.784373
  330        2.824555
  331        2.898237
  332        3.181498
  333        3.464017
  334        3.857577
  335        3.996093
  336        4.123900
  337        4.150030
  338        4.362866
  339        4.435293
  340        4.520582
  341        4.590642
  342        4.676092
  343        4.803494
  344        4.914314
  345        5.045343
  346        5.295415
  347        5.350403
  348        5.432699
  349        5.477192
  350        5.510470
  351        5.610764
  352        5.662327
  353        5.745888
  354        5.812776
  355        5.959324
  356        6.176633
  357        6.370062
  358        6.476672
  359        6.509716
  360        6.604196
  361        6.624528
  362        6.748043
  363        6.848493
  364        6.935017
  365        6.999134
  366        7.081454
  367        7.116245
  368        7.193177
  369        7.290509
  370        7.340829
  371        7.386803
  372        7.620132
 
  0.0000000E+00  0.2500000E+00  0.0000000E+00  0.1250000E+00
    1      -71.205128
    2      -71.193277
    3      -71.158038
    4      -71.152609
    5      -71.119224
    6      -71.112372
    7      -71.107920
    8      -71.104795
    9      -71.098670
   10      -71.089826
   11      -71.072077
   12      -71.066651
   13      -71.062332
   14      -71.059264
   15      -71.057185
   16      -71.054955
   17      -71.053130
   18      -71.048965
   19      -71.047901
   20      -71.047015
   21      -71.040808
   22      -71.037236
   23      -71.036593
   24      -71.035205
   25      -71.033088
   26      -71.031248
   27      -71.030086
   28      -71.029345
   29      -71.028345
   30      -71.026853
   31      -71.022399
   32      -71.020829
   33      -71.016023
   34      -71.012784
   35      -71.007763
   36      -71.004316
   37      -71.002486
   38      -70.999791
   39      -70.998467
   40      -70.996828
   41      -70.996386
   42      -70.992225
   43      -70.989844
   44      -70.988204
   45      -70.985483
   46      -70.982821
   47      -70.981866
   48      -70.980060
   49      -70.977744
   50      -70.975269
   51      -70.971716
   52      -70.967796
   53      -70.965868
   54      -70.962701
   55      -70.958535
   56      -70.945714
   57      -70.944071
   58      -70.941580
   59      -70.936847
   60      -70.926786
   61      -70.923034
   62      -70.918222
   63      -70.908634
   64      -70.905730
   65      -70.899640
   66      -70.891698
   67      -70.851110
   68      -70.843738
   69      -70.841162
   70      -70.835767
   71      -70.835556
   72      -70.820224
   73      -70.819207
   74      -70.812425
   75      -70.808750
   76      -70.804220
   77      -70.802530
   78      -70.788730
   79      -70.784975
   80      -70.782073
   81      -70.779375
   82      -70.777795
   83      -70.775398
   84      -70.772148
   85      -70.769377
   86      -70.766918
   87      -70.765196
   88      -70.760184
   89      -70.755406
   90      -70.739916
   91      -70.735728
   92      -70.734420
   93      -70.723726
   94      -70.721981
   95      -70.721235
   96      -70.717872
   97      -70.717533
   98      -70.715124
   99      -70.712595
  100      -70.702084
  101      -70.700031
  102      -70.699562
  103      -70.691729
  104      -70.685444
  105      -70.678879
  106      -70.675719
  107      -70.626525
  108      -70.622916
  109      -15.814465
  110      -10.010214
  111       -8.755468
  112       -8.457867
  113       -8.258377
  114       -7.570026
  115       -7.538697
  116       -7.286338
  117       -7.163836
  118       -6.670684
  119       -6.587849
  120       -6.525724
  121       -6.484724
  122       -6.358666
  123       -6.274929
  124       -6.170917
  125       -6.060498
  126       -6.020598
  127       -5.974378
  128       -5.834511
  129       -5.728250
  130       -5.635195
  131       -5.574916
  132       -5.485110
  133       -5.460453
  134       -5.414893
  135       -5.378093
  136       -5.371448
  137       -5.361591
  138       -5.341909
  139       -5.325325
  140       -5.306695
  141       -5.284137
  142       -5.258078
  143       -5.194913
  144       -5.178930
  145       -5.161894
  146       -5.151099
  147       -5.111566
  148       -5.085386
  149       -5.040983
  150       -5.025064
  151       -4.993722
  152       -4.956775
  153       -4.942120
  154       -4.903386
  155       -4.895486
  156       -4.854377
  157       -4.839312
  158       -4.822879
  159       -4.791860
  160       -4.765844
  161       -4.741257
  162       -4.695310
  163       -4.670298
  164       -4.646674
  165       -4.633701
  166       -4.613610
  167       -4.543176
  168       -4.533667
  169       -4.527917
  170       -4.485296
  171       -4.458077
  172       -4.429445
  173       -4.413090
  174       -4.367194
  175       -4.324817
  176       -4.309603
  177       -4.289855
  178       -4.278030
  179       -4.265350
  180       -4.247329
  181       -4.231719
  182       -4.206307
  183       -4.184676
  184       -4.170919
  185       -4.148984
  186       -4.139253
  187       -4.113018
  188       -4.067092
  189       -4.054941
  190       -4.040356
  191       -4.021984
  192       -4.006026
  193       -3.988605
  194       -3.975170
  195       -3.960323
  196       -3.958095
  197       -3.939747
  198       -3.930059
  199       -3.921533
  200       -3.914498
  201       -3.910934
  202       -3.905806
  203       -3.890729
  204       -3.883542
  205       -3.872026
  206       -3.861142
  207       -3.851033
  208       -3.842977
  209       -3.828340
  210       -3.807850
  211       -3.790215
  212       -3.779263
  213       -3.750356
  214       -3.738172
  215       -3.725106
  216       -3.712297
  217       -3.704392
  218       -3.700111
  219       -3.699727
  220       -3.691839
  221       -3.672317
  222       -3.648252
  223       -3.609331
  224       -3.568314
  225       -3.553401
  226       -3.527346
  227       -3.488392