       N       E                     dE             d eps       ncg     rms          rms(c)
DAV:   1     0.608566670331E+04    0.60857E+04   -0.40305E+05  9400   0.161E+03
DAV:   2     0.164100598655E+03   -0.59216E+04   -0.57674E+04  7852   0.532E+02
DAV:   3    -0.161151676650E+03   -0.32525E+03   -0.31372E+03  8176   0.152E+02
DAV:   4    -0.170879709883E+03   -0.97280E+01   -0.95886E+01  7920   0.244E+01
DAV:   5    -0.171228540364E+03   -0.34883E+00   -0.34869E+00  8728   0.436E+00    0.600E+01
DAV:   6    -0.203028536203E+03   -0.31800E+02   -0.45516E+02  8840   0.104E+02    0.785E+01
DAV:   7    -0.154370289959E+03    0.48658E+02   -0.96588E+01  9220   0.907E+01    0.520E+01
DAV:   8    -0.152160203072E+03    0.22101E+01   -0.77527E+01  9556   0.664E+01    0.327E+01
DAV:   9    -0.145827880584E+03    0.63323E+01   -0.38872E+01  9480   0.556E+01    0.219E+01
DAV:  10    -0.135576727955E+03    0.10251E+02   -0.22005E+01  8800   0.302E+01    0.903E+00
DAV:  11    -0.135766264613E+03   -0.18954E+00   -0.89758E+00  8944   0.162E+01    0.947E+00
DAV:  12    -0.135872967589E+03   -0.10670E+00   -0.48825E+00  8088   0.865E+00    0.643E+00
DAV:  13    -0.135484071803E+03    0.38890E+00   -0.30360E+00  8336   0.110E+01    0.559E+00
DAV:  14    -0.135365710695E+03    0.11836E+00   -0.48156E-01  8064   0.174E+00    0.332E+00
DAV:  15    -0.135347117322E+03    0.18593E-01   -0.83232E-02  8144   0.244E+00    0.302E+00
DAV:  16    -0.135470069424E+03   -0.12295E+00   -0.29933E-01  8016   0.338E+00    0.459E+00
DAV:  17    -0.135314378438E+03    0.15569E+00   -0.26353E-01  8284   0.211E+00    0.211E+00
DAV:  18    -0.135295052222E+03    0.19326E-01   -0.60917E-02 10116   0.131E+00    0.108E+00
DAV:  19    -0.135297819716E+03   -0.27675E-02   -0.52175E-02  9332   0.811E-01    0.742E-01
DAV:  20    -0.135294414025E+03    0.34057E-02   -0.21259E-02  7756   0.925E-01    0.417E-01
DAV:  21    -0.135298322546E+03   -0.39085E-02   -0.23384E-02 10116   0.968E-01    0.588E-01
DAV:  22    -0.135293499204E+03    0.48233E-02   -0.17793E-02  7940   0.966E-01    0.198E-01
DAV:  23    -0.135294719232E+03   -0.12200E-02   -0.45674E-03  8324   0.374E-01    0.312E-01
DAV:  24    -0.135294388021E+03    0.33121E-03   -0.79730E-04  7860   0.119E-01    0.231E-01
DAV:  25    -0.135294063346E+03    0.32467E-03   -0.12027E-03  7296   0.216E-01    0.847E-02
DAV:  26    -0.135296441002E+03   -0.23777E-02   -0.86999E-03  9284   0.489E-01    0.338E-01
DAV:  27    -0.135295150531E+03    0.12905E-02   -0.13136E-03  8328   0.196E-01    0.218E-01
DAV:  28    -0.135296722500E+03   -0.15720E-02   -0.12598E-03  8112   0.168E-01    0.367E-01
DAV:  29    -0.135295040648E+03    0.16819E-02   -0.31870E-03  7336   0.286E-01    0.132E-01
DAV:  30    -0.135294967086E+03    0.73562E-04   -0.76333E-04  5568   0.145E-01    0.387E-02
DAV:  31    -0.135295039316E+03   -0.72230E-04   -0.13087E-04  6772   0.294E-02    0.319E-02
DAV:  32    -0.135295098274E+03   -0.58958E-04   -0.29594E-04  4600   0.994E-02    0.826E-02
DAV:  33    -0.135295077109E+03    0.21165E-04   -0.45956E-04  4428   0.119E-01    0.381E-02
DAV:  34    -0.135295070247E+03    0.68618E-05   -0.16933E-04  4376   0.688E-02    0.443E-02
DAV:  35    -0.135295202592E+03   -0.13235E-03   -0.29497E-04  4760   0.107E-01    0.480E-02
DAV:  36    -0.135295644576E+03   -0.44198E-03   -0.51184E-04  4808   0.122E-01    0.148E-01
DAV:  37    -0.135295972984E+03   -0.32841E-03   -0.15882E-04  5132   0.655E-02    0.200E-01
DAV:  38    -0.135295781003E+03    0.19198E-03   -0.95099E-05  6424   0.485E-02    0.167E-01
DAV:  39    -0.135295775733E+03    0.52691E-05   -0.50622E-06  4408   0.554E-03
   1 F= -.14893511E+03 E0= -.14888748E+03  d E =-.148935E+03
       N       E                     dE             d eps       ncg     rms          rms(c)
DAV:   1    -0.133974166248E+03    0.13216E+01   -0.65633E+01  9096   0.682E+01    0.542E+00
DAV:   2    -0.136738174996E+03   -0.27640E+01   -0.22487E+01  8092   0.110E+01    0.664E+00
DAV:   3    -0.137587155693E+03   -0.84898E+00   -0.99222E+00  9768   0.229E+01    0.952E+00
DAV:   4    -0.135760032277E+03    0.18271E+01   -0.28418E+00  8712   0.146E+01    0.189E+00
DAV:   5    -0.135781864092E+03   -0.21832E-01   -0.24215E-01  8392   0.241E+00    0.162E+00
DAV:   6    -0.135781627464E+03    0.23663E-03   -0.47945E-02  7968   0.956E-01    0.134E+00
DAV:   7    -0.135780513488E+03    0.11140E-02   -0.43805E-03  9504   0.427E-01    0.110E+00
DAV:   8    -0.135780453594E+03    0.59894E-04   -0.64803E-03  8028   0.480E-01    0.820E-01
DAV:   9    -0.135781702844E+03   -0.12493E-02   -0.45616E-03  9860   0.532E-01    0.492E-01
DAV:  10    -0.135781992257E+03   -0.28941E-03   -0.68385E-03  9640   0.779E-01    0.422E-01
DAV:  11    -0.135781463473E+03    0.52878E-03   -0.12363E-03  8576   0.190E-01    0.363E-01
DAV:  12    -0.135781061474E+03    0.40200E-03   -0.30350E-04  7828   0.171E-01    0.286E-01
DAV:  13    -0.135780396946E+03    0.66453E-03   -0.18652E-03  8300   0.125E-01    0.852E-02
DAV:  14    -0.135780506051E+03   -0.10911E-03   -0.29691E-04  7472   0.658E-02    0.784E-02
DAV:  15    -0.135780561346E+03   -0.55294E-04   -0.59126E-05  6248   0.440E-02    0.899E-02
DAV:  16    -0.135780539479E+03    0.21866E-04   -0.42100E-05  6256   0.562E-02    0.579E-02
DAV:  17    -0.135780523876E+03    0.15604E-04   -0.30935E-05  5080   0.394E-02    0.244E-02
DAV:  18    -0.135780528591E+03   -0.47153E-05   -0.19309E-05  4748   0.168E-02
   2 F= -.14940900E+03 E0= -.14936360E+03  d E =-.473895E+00
       N       E                     dE             d eps       ncg     rms          rms(c)
DAV:   1    -0.123004493367E+03    0.12776E+02   -0.56943E+02 10192   0.192E+02    0.178E+01
DAV:   2    -0.137584871940E+03   -0.14580E+02   -0.14579E+02  8096   0.339E+01    0.143E+01
DAV:   3    -0.137653444189E+03   -0.68572E-01   -0.11073E+01  8196   0.260E+01    0.859E+00
DAV:   4    -0.139163111300E+03   -0.15097E+01   -0.12762E+01  8480   0.291E+01    0.100E+01
DAV:   5    -0.137241595747E+03    0.19215E+01   -0.26547E+00 11264   0.154E+01    0.473E+00
DAV:   6    -0.137255287010E+03   -0.13691E-01   -0.63005E-01  7992   0.311E+00    0.390E+00
DAV:   7    -0.137245275043E+03    0.10012E-01   -0.97254E-02  8344   0.138E+00    0.333E+00
DAV:   8    -0.137249231907E+03   -0.39569E-02   -0.40068E-02  8036   0.147E+00    0.283E+00
DAV:   9    -0.137245813199E+03    0.34187E-02   -0.15168E-02  8096   0.120E+00    0.182E+00
DAV:  10    -0.137242984201E+03    0.28290E-02   -0.19587E-02  9704   0.139E+00    0.755E-01
DAV:  11    -0.137242541887E+03    0.44231E-03   -0.96574E-03  9152   0.644E-01    0.587E-01
DAV:  12    -0.137242547129E+03   -0.52416E-05   -0.26228E-03  7756   0.327E-01    0.525E-01
DAV:  13    -0.137242226000E+03    0.32113E-03   -0.16880E-03  7964   0.433E-01    0.367E-01
DAV:  14    -0.137242130889E+03    0.95111E-04   -0.16581E-03  7832   0.238E-01    0.236E-01
DAV:  15    -0.137242105810E+03    0.25078E-04   -0.25211E-04  7528   0.868E-02    0.187E-01
DAV:  16    -0.137242073918E+03    0.31893E-04   -0.10429E-04  4808   0.975E-02    0.119E-01
DAV:  17    -0.137242100241E+03   -0.26323E-04   -0.11385E-04  7056   0.995E-02    0.692E-02
DAV:  18    -0.137242101226E+03   -0.98563E-06   -0.57968E-05  6672   0.483E-02
   3 F= -.15080108E+03 E0= -.15075929E+03  d E =-.186597E+01
       N       E                     dE             d eps       ncg     rms          rms(c)
DAV:   1    -0.611817751214E+02    0.76060E+02   -0.20211E+03  8272   0.369E+02    0.430E+01
DAV:   2    -0.223781149552E+03   -0.16260E+03   -0.82531E+02  8932   0.198E+02    0.249E+02
DAV:   3    -0.202376043991E+03    0.21405E+02   -0.30212E+02  9116   0.449E+01    0.105E+02
DAV:   4    -0.166718395867E+03    0.35658E+02   -0.68820E+01  9212   0.688E+01    0.765E+01
DAV:   5    -0.143698034974E+03    0.23020E+02   -0.63267E+01  8840   0.385E+01    0.323E+01
DAV:   6    -0.144342193656E+03   -0.64416E+00   -0.40038E+01  8092   0.545E+01    0.330E+01
DAV:   7    -0.136695533215E+03    0.76467E+01   -0.16287E+01  9256   0.267E+01    0.190E+01
DAV:   8    -0.135580609295E+03    0.11149E+01   -0.52562E+00  8488   0.145E+01    0.134E+01
DAV:   9    -0.135173900235E+03    0.40671E+00   -0.15601E+00  9056   0.524E+00    0.104E+01
DAV:  10    -0.134617635525E+03    0.55626E+00   -0.59962E-01  8216   0.778E+00    0.816E+00
DAV:  11    -0.134378668700E+03    0.23897E+00   -0.32742E-01 10288   0.599E+00    0.611E+00
DAV:  12    -0.134308339413E+03    0.70329E-01   -0.46244E-01  9000   0.636E+00    0.448E+00
DAV:  13    -0.134314815742E+03   -0.64763E-02   -0.22855E-01  7828   0.267E+00    0.447E+00
DAV:  14    -0.134314666362E+03    0.14938E-03   -0.35957E-02  8048   0.816E-01    0.445E+00
DAV:  15    -0.134321019002E+03   -0.63526E-02   -0.18016E-02  7900   0.102E+00    0.433E+00
DAV:  16    -0.134334819604E+03   -0.13801E-01   -0.11007E-02  8140   0.890E-01    0.404E+00
DAV:  17    -0.134311721969E+03    0.23098E-01   -0.37974E-02  7892   0.199E+00    0.343E+00
DAV:  18    -0.134310744654E+03    0.97731E-03   -0.65583E-03  8096   0.452E-01    0.327E+00
DAV:  19    -0.134310613945E+03    0.13071E-03   -0.11451E-03  7844   0.133E-01    0.330E+00
DAV:  20    -0.134309128498E+03    0.14854E-02   -0.13065E-04  7988   0.115E-01    0.324E+00
DAV:  21    -0.134304954262E+03    0.41742E-02   -0.16053E-03  8284   0.443E-01    0.290E+00
DAV:  22    -0.134304453262E+03    0.50100E-03   -0.24534E-03  7816   0.237E-01    0.279E+00
DAV:  23    -0.134304732981E+03   -0.27972E-03   -0.36473E-04  7208   0.921E-02    0.277E+00
DAV:  24    -0.134304776332E+03   -0.43351E-04   -0.43521E-05  6644   0.233E-02    0.276E+00
DAV:  25    -0.134304752138E+03    0.24194E-04   -0.26000E-05  4968   0.495E-02    0.274E+00
DAV:  26    -0.134304083153E+03    0.66899E-03   -0.46250E-04  8208   0.192E-01    0.251E+00
DAV:  27    -0.134303165949E+03    0.91720E-03   -0.50398E-04  9096   0.148E-01    0.227E+00
DAV:  28    -0.134302451408E+03    0.71454E-03   -0.11893E-04  8696   0.856E-02    0.213E+00
DAV:  29    -0.134301637668E+03    0.81374E-03   -0.64540E-05  6132   0.968E-02    0.197E+00
DAV:  30    -0.134299187153E+03    0.24505E-02   -0.59578E-04  9268   0.323E-01    0.139E+00
DAV:  31    -0.134298035914E+03    0.11512E-02   -0.10367E-03  9420   0.221E-01    0.991E-01
DAV:  32    -0.134297515598E+03    0.52032E-03   -0.46270E-04  9216   0.141E-01    0.726E-01
DAV:  33    -0.134297310177E+03    0.20542E-03   -0.15052E-04  6968   0.785E-02    0.602E-01
DAV:  34    -0.134297263989E+03    0.46189E-04   -0.14124E-04  6816   0.373E-02    0.549E-01
DAV:  35    -0.134297226730E+03    0.37258E-04   -0.12791E-05  4592   0.273E-02    0.492E-01
DAV:  36    -0.134297215144E+03    0.11587E-04   -0.13675E-04  7312   0.100E-01    0.353E-01
DAV:  37    -0.134297156832E+03    0.58312E-04   -0.10625E-04  7976   0.780E-02    0.238E-01
DAV:  38    -0.134297137431E+03    0.19401E-04   -0.37935E-05  5800   0.375E-02    0.189E-01
DAV:  39    -0.134297142591E+03   -0.51600E-05   -0.11536E-05  4660   0.260E-02
   4 F= -.14778696E+03 E0= -.14774353E+03  d E =0.114815E+01
       N       E                     dE             d eps       ncg     rms          rms(c)
DAV:   1    -0.713624365118E+02    0.62935E+02   -0.13889E+03  7856   0.283E+02    0.427E+01
DAV:   2    -0.239485577686E+03   -0.16812E+03   -0.82224E+02  9188   0.195E+02    0.218E+02
DAV:   3    -0.193392314208E+03    0.46093E+02   -0.23766E+02 10152   0.562E+01    0.841E+01
DAV:   4    -0.217191933082E+03   -0.23800E+02   -0.53489E+01  8428   0.947E+01    0.105E+02
DAV:   5    -0.149571084942E+03    0.67621E+02   -0.65946E+01 10492   0.526E+01    0.316E+01
DAV:   6    -0.145315479611E+03    0.42556E+01   -0.22048E+01  9248   0.238E+01    0.235E+01
DAV:   7    -0.142227218633E+03    0.30883E+01   -0.11040E+01  8276   0.275E+01    0.181E+01
DAV:   8    -0.138659657906E+03    0.35676E+01   -0.63700E+00  9664   0.156E+01    0.106E+01
DAV:   9    -0.137849977821E+03    0.80968E+00   -0.31433E+00  9896   0.103E+01    0.757E+00
DAV:  10    -0.137653338342E+03    0.19664E+00   -0.11561E+00  9936   0.637E+00    0.627E+00
DAV:  11    -0.137629063277E+03    0.24275E-01   -0.70193E-01  9104   0.549E+00    0.580E+00
DAV:  12    -0.137617152351E+03    0.11911E-01   -0.34531E-01  7792   0.338E+00    0.475E+00
DAV:  13    -0.137607222622E+03    0.99297E-02   -0.11429E-01  8056   0.327E+00    0.434E+00
DAV:  14    -0.137592413979E+03    0.14809E-01   -0.58566E-02  8032   0.256E+00    0.336E+00
DAV:  15    -0.137590221602E+03    0.21924E-02   -0.24294E-02  8136   0.953E-01    0.296E+00
DAV:  16    -0.137589747246E+03    0.47436E-03   -0.50013E-03  7848   0.535E-01    0.285E+00
DAV:  17    -0.137587762991E+03    0.19843E-02   -0.76160E-04  9400   0.287E-01    0.270E+00
DAV:  18    -0.137584536060E+03    0.32269E-02   -0.20143E-03  9156   0.433E-01    0.229E+00
DAV:  19    -0.137584295059E+03    0.24100E-03   -0.14711E-03  9480   0.199E-01    0.214E+00
DAV:  20    -0.137584149492E+03    0.14557E-03   -0.36850E-04  7608   0.768E-02    0.205E+00
DAV:  21    -0.137584041287E+03    0.10820E-03   -0.94796E-05  7128   0.483E-02    0.200E+00
DAV:  22    -0.137583631922E+03    0.40937E-03   -0.19507E-04  7180   0.108E-01    0.177E+00
DAV:  23    -0.137582981635E+03    0.65029E-03   -0.48025E-04  8220   0.232E-01    0.143E+00
DAV:  24    -0.137582660740E+03    0.32089E-03   -0.36016E-04  9112   0.996E-02    0.120E+00
DAV:  25    -0.137582562027E+03    0.98714E-04   -0.56009E-05  7560   0.578E-02    0.113E+00
DAV:  26    -0.137582470990E+03    0.91036E-04   -0.47063E-05  6568   0.642E-02    0.103E+00
DAV:  27    -0.137582296024E+03    0.17497E-03   -0.11960E-04  8044   0.968E-02    0.764E-01
DAV:  28    -0.137582184799E+03    0.11122E-03   -0.23422E-04  8944   0.875E-02    0.448E-01
DAV:  29    -0.137582139622E+03    0.45177E-04   -0.14920E-04  7516   0.557E-02    0.288E-01
DAV:  30    -0.137582116321E+03    0.23301E-04   -0.30790E-05  5888   0.254E-02    0.201E-01
DAV:  31    -0.137582108589E+03    0.77315E-05   -0.14646E-05  4720   0.306E-02
   5 F= -.15112582E+03 E0= -.15108424E+03  d E =-.219072E+01
       N       E                     dE             d eps       ncg     rms          rms(c)
DAV:   1    -0.124195303006E+03    0.13387E+02   -0.41488E+02  9616   0.182E+02    0.271E+01
DAV:   2    -0.139123318808E+03   -0.14928E+02   -0.14290E+02  9996   0.422E+01    0.219E+01
DAV:   3    -0.143444206470E+03   -0.43209E+01   -0.27804E+01  8056   0.491E+01    0.172E+01
DAV:   4    -0.141910384881E+03    0.15338E+01   -0.27173E+01  8652   0.499E+01    0.156E+01
DAV:   5    -0.137851168997E+03    0.40592E+01   -0.54415E+00 10216   0.210E+01    0.784E+00
DAV:   6    -0.137805893131E+03    0.45276E-01   -0.14808E+00  8164   0.743E+00    0.571E+00
DAV:   7    -0.137792566092E+03    0.13327E-01   -0.34316E-01  8272   0.260E+00    0.464E+00
DAV:   8    -0.137802538167E+03   -0.99721E-02   -0.11711E-01  7868   0.218E+00    0.406E+00
DAV:   9    -0.137808758738E+03   -0.62206E-02   -0.50103E-02  8056   0.146E+00    0.289E+00
DAV:  10    -0.137790369308E+03    0.18389E-01   -0.55090E-02  8588   0.199E+00    0.101E+00
DAV:  11    -0.137790191828E+03    0.17748E-03   -0.21287E-02  9968   0.124E+00    0.666E-01
DAV:  12    -0.137789001560E+03    0.11903E-02   -0.89276E-03  7960   0.699E-01    0.612E-01
DAV:  13    -0.137788527655E+03    0.47390E-03   -0.34487E-03  7984   0.418E-01    0.388E-01
DAV:  14    -0.137788632989E+03   -0.10533E-03   -0.13178E-03  7640   0.130E-01    0.319E-01
DAV:  15    -0.137788635996E+03   -0.30074E-05   -0.14401E-04  7656   0.959E-02    0.290E-01
DAV:  16    -0.137788735064E+03   -0.99067E-04   -0.39851E-04  7712   0.200E-01    0.147E-01
DAV:  17    -0.137788686028E+03    0.49036E-04   -0.41295E-04  7996   0.223E-01    0.132E-01
DAV:  18    -0.137788677451E+03    0.85763E-05   -0.10383E-04  7144   0.546E-02    0.104E-01
DAV:  19    -0.137788688446E+03   -0.10995E-04   -0.53619E-05  6620   0.468E-02    0.747E-02
DAV:  20    -0.137788708013E+03   -0.19566E-04   -0.75442E-06  4388   0.207E-02    0.596E-02
DAV:  21    -0.137788729377E+03   -0.21364E-04   -0.10107E-05  4644   0.273E-02    0.397E-02
DAV:  22    -0.137788742417E+03   -0.13041E-04   -0.77933E-06  4504   0.223E-02    0.164E-02
DAV:  23    -0.137788754119E+03   -0.11702E-04   -0.85343E-06  4384   0.100E-02    0.988E-03
DAV:  24    -0.137788761326E+03   -0.72064E-05   -0.16981E-06  4424   0.506E-03
   6 F= -.15130658E+03 E0= -.15126424E+03  d E =-.237147E+01
       N       E                     dE             d eps       ncg     rms          rms(c)
DAV:   1    -0.133807221236E+03    0.39815E+01   -0.11895E+02  9148   0.872E+01    0.110E+01
DAV:   2    -0.137875106313E+03   -0.40679E+01   -0.41320E+01  7836   0.140E+01    0.510E+00
DAV:   3    -0.138458135209E+03   -0.58303E+00   -0.37012E+00 10408   0.142E+01    0.677E+00
DAV:   4    -0.137940879018E+03    0.51726E+00   -0.25288E+00  8644   0.124E+01    0.370E+00
DAV:   5    -0.137937163870E+03    0.37151E-02   -0.37640E-01  9888   0.577E+00    0.338E+00
DAV:   6    -0.137923038632E+03    0.14125E-01   -0.99386E-02  8060   0.223E+00    0.249E+00
DAV:   7    -0.137905987503E+03    0.17051E-01   -0.71212E-02  8400   0.228E+00    0.913E-01
DAV:   8    -0.137906176016E+03   -0.18851E-03   -0.24577E-02  8340   0.124E+00    0.563E-01
DAV:   9    -0.137906463856E+03   -0.28784E-03   -0.11421E-02  8232   0.745E-01    0.384E-01
DAV:  10    -0.137906676135E+03   -0.21228E-03   -0.15817E-03  7768   0.208E-01    0.346E-01
DAV:  11    -0.137906710595E+03   -0.34459E-04   -0.41378E-04  7544   0.118E-01    0.278E-01
DAV:  12    -0.137906584848E+03    0.12575E-03   -0.15092E-03  7820   0.386E-01    0.116E-01
DAV:  13    -0.137906554624E+03    0.30224E-04   -0.33069E-04  7872   0.122E-01    0.832E-02
DAV:  14    -0.137906552412E+03    0.22111E-05   -0.77295E-05  6936   0.612E-02
   7 F= -.15143699E+03 E0= -.15139529E+03  d E =-.250188E+01
       N       E                     dE             d eps       ncg     rms          rms(c)
DAV:   1    -0.137307030721E+03    0.59952E+00   -0.21309E+01  8848   0.391E+01    0.285E+00
DAV:   2    -0.137932905469E+03   -0.62587E+00   -0.64471E+00  7804   0.578E+00    0.190E+00
DAV:   3    -0.137944098924E+03   -0.11193E-01   -0.28952E-01  8796   0.273E+00    0.103E+00
DAV:   4    -0.137944901500E+03   -0.80258E-03   -0.37861E-02  7840   0.177E+00    0.996E-01
DAV:   5    -0.137949674024E+03   -0.47725E-02   -0.42886E-02  8612   0.197E+00    0.111E+00
DAV:   6    -0.137941791940E+03    0.78821E-02   -0.28259E-02  8324   0.150E+00    0.571E-01
DAV:   7    -0.137942154833E+03   -0.36289E-03   -0.11372E-02 10440   0.518E-01    0.413E-01
DAV:   8    -0.137941329778E+03    0.82505E-03   -0.37682E-03  8160   0.389E-01    0.167E-01
DAV:   9    -0.137941115928E+03    0.21385E-03   -0.12546E-03  8604   0.273E-01    0.795E-02
DAV:  10    -0.137941129795E+03   -0.13867E-04   -0.22381E-04  8288   0.912E-02    0.516E-02
DAV:  11    -0.137941156169E+03   -0.26375E-04   -0.11586E-04  6768   0.504E-02    0.413E-02
DAV:  12    -0.137941160551E+03   -0.43815E-05   -0.60669E-05  6744   0.739E-02
   8 F= -.15146651E+03 E0= -.15142456E+03  d E =-.253140E+01
       N       E                     dE             d eps       ncg     rms          rms(c)
DAV:   1    -0.131536150280E+03    0.64050E+01   -0.15794E+02  9644   0.134E+02    0.130E+01
DAV:   2    -0.138236835242E+03   -0.67007E+01   -0.67961E+01  7968   0.206E+01    0.746E+00
DAV:   3    -0.139179102792E+03   -0.94227E+00   -0.59523E+00  9032   0.217E+01    0.812E+00
DAV:   4    -0.138637325413E+03    0.54178E+00   -0.70734E+00  9184   0.218E+01    0.544E+00
DAV:   5    -0.138240603324E+03    0.39672E+00   -0.77349E-01 11356   0.856E+00    0.343E+00
DAV:   6    -0.138251641920E+03   -0.11039E-01   -0.21618E-01  8204   0.180E+00    0.294E+00
DAV:   7    -0.138253245388E+03   -0.16035E-02   -0.30058E-02  8396   0.753E-01    0.265E+00
DAV:   8    -0.138250345416E+03    0.29000E-02   -0.43515E-03  7840   0.570E-01    0.195E+00
DAV:   9    -0.138247372516E+03    0.29729E-02   -0.98144E-03 11548   0.112E+00    0.610E-01
DAV:  10    -0.138247133448E+03    0.23907E-03   -0.57839E-03 10144   0.529E-01    0.451E-01
DAV:  11    -0.138247132861E+03    0.58650E-06   -0.14288E-03  7576   0.181E-01    0.378E-01
DAV:  12    -0.138247084785E+03    0.48076E-04   -0.16512E-04  7744   0.112E-01    0.323E-01
DAV:  13    -0.138247127057E+03   -0.42272E-04   -0.25463E-04  9032   0.108E-01    0.184E-01
DAV:  14    -0.138247160786E+03   -0.33728E-04   -0.21684E-04  7724   0.969E-02    0.928E-02
DAV:  15    -0.138247164025E+03   -0.32390E-05   -0.72942E-05  6840   0.414E-02
   9 F= -.15176160E+03 E0= -.15171913E+03  d E =-.295088E+00
       N       E                     dE             d eps       ncg     rms          rms(c)
DAV:   1    -0.135703976876E+03    0.25432E+01   -0.63337E+01  9492   0.847E+01    0.645E+00
DAV:   2    -0.138242900942E+03   -0.25389E+01   -0.25876E+01  7700   0.111E+01    0.325E+00
DAV:   3    -0.138516753346E+03   -0.27385E+00   -0.18716E+00 10988   0.101E+01    0.395E+00
DAV:   4    -0.138386189547E+03    0.13056E+00   -0.14345E+00  8500   0.108E+01    0.268E+00
DAV:   5    -0.138311158901E+03    0.75031E-01   -0.17090E-01  9736   0.411E+00    0.176E+00
DAV:   6    -0.138312857902E+03   -0.16990E-02   -0.45012E-02  8328   0.101E+00    0.144E+00
DAV:   7    -0.138313426868E+03   -0.56897E-03   -0.10379E-02  8488   0.606E-01    0.107E+00
DAV:   8    -0.138311931509E+03    0.14954E-02   -0.42167E-03  8068   0.556E-01    0.470E-01
DAV:   9    -0.138311795040E+03    0.13647E-03   -0.26094E-03 11484   0.437E-01    0.263E-01
DAV:  10    -0.138311828482E+03   -0.33442E-04   -0.10604E-03  8260   0.190E-01    0.219E-01
DAV:  11    -0.138311846531E+03   -0.18048E-04   -0.27244E-04  7624   0.119E-01    0.134E-01
DAV:  12    -0.138311880979E+03   -0.34448E-04   -0.12636E-04  7172   0.769E-02    0.892E-02
DAV:  13    -0.138311883227E+03   -0.22485E-05   -0.34670E-05  6400   0.432E-02
  10 F= -.15181890E+03 E0= -.15177600E+03  d E =-.352391E+00
       N       E                     dE             d eps       ncg     rms          rms(c)
DAV:   1    -0.125199824472E+03    0.13112E+02   -0.37967E+02 11876   0.193E+02    0.964E+00
DAV:   2    -0.138890148873E+03   -0.13690E+02   -0.13988E+02  7888   0.307E+01    0.937E+00
DAV:   3    -0.138921770482E+03   -0.31622E-01   -0.65788E+00  8180   0.180E+01    0.583E+00
DAV:   4    -0.139309442410E+03   -0.38767E+00   -0.34593E+00  8556   0.179E+01    0.526E+00
DAV:   5    -0.138761529601E+03    0.54791E+00   -0.11456E+00 10768   0.111E+01    0.295E+00
DAV:   6    -0.138771038234E+03   -0.95086E-02   -0.22382E-01  8584   0.219E+00    0.258E+00
DAV:   7    -0.138774557119E+03   -0.35189E-02   -0.50825E-02  8456   0.131E+00    0.200E+00
DAV:   8    -0.138771418174E+03    0.31389E-02   -0.31163E-02  8180   0.145E+00    0.136E+00
DAV:   9    -0.138768971346E+03    0.24468E-02   -0.14329E-02  9612   0.103E+00    0.655E-01
DAV:  10    -0.138766013293E+03    0.29581E-02   -0.11405E-02  8852   0.104E+00    0.442E-01
DAV:  11    -0.138766261149E+03   -0.24786E-03   -0.31901E-03  7956   0.273E-01    0.359E-01
DAV:  12    -0.138766293060E+03   -0.31911E-04   -0.59017E-04  8020   0.105E-01    0.322E-01
DAV:  13    -0.138766287212E+03    0.58478E-05   -0.28961E-05  5288   0.342E-02
  11 F= -.15227152E+03 E0= -.15222988E+03  d E =-.452622E+00
       N       E                     dE             d eps       ncg     rms          rms(c)
DAV:   1    -0.130271884173E+03    0.84944E+01   -0.19843E+02 11856   0.151E+02    0.150E+01
DAV:   2    -0.138738210175E+03   -0.84663E+01   -0.85580E+01  7844   0.235E+01    0.761E+00
DAV:   3    -0.139073129235E+03   -0.33492E+00   -0.43685E+00  8852   0.154E+01    0.668E+00
DAV:   4    -0.139116797451E+03   -0.43668E-01   -0.26469E+00  8400   0.162E+01    0.512E+00
DAV:   5    -0.138862642989E+03    0.25415E+00   -0.68399E-01 10984   0.848E+00    0.388E+00
DAV:   6    -0.138863379776E+03   -0.73679E-03   -0.12318E-01  8632   0.175E+00    0.350E+00
DAV:   7    -0.138864961198E+03   -0.15814E-02   -0.27812E-02  8532   0.682E-01    0.315E+00
DAV:   8    -0.138863019780E+03    0.19414E-02   -0.94571E-03  7868   0.812E-01    0.242E+00
DAV:   9    -0.138862040442E+03    0.97934E-03   -0.70638E-03  9788   0.987E-01    0.114E+00
DAV:  10    -0.138859849214E+03    0.21912E-02   -0.82610E-03 10160   0.905E-01    0.512E-01
DAV:  11    -0.138859917206E+03   -0.67993E-04   -0.28941E-03  8128   0.247E-01    0.459E-01
DAV:  12    -0.138859894105E+03    0.23102E-04   -0.38534E-04  8004   0.111E-01    0.420E-01
DAV:  13    -0.138859872318E+03    0.21787E-04   -0.13128E-04  8680   0.104E-01    0.338E-01
DAV:  14    -0.138859886068E+03   -0.13750E-04   -0.44817E-04  9484   0.146E-01    0.173E-01
DAV:  15    -0.138859883489E+03    0.25793E-05   -0.19582E-04  7472   0.790E-02    0.159E-01
DAV:  16    -0.138859880942E+03    0.25467E-05   -0.52733E-05  6580   0.306E-02
  12 F= -.15233068E+03 E0= -.15229001E+03  d E =-.511778E+00
       N       E                     dE             d eps       ncg     rms          rms(c)
DAV:   1    -0.133808614194E+03    0.50513E+01   -0.13600E+02 10192   0.128E+02    0.112E+01
DAV:   2    -0.139369659930E+03   -0.55610E+01   -0.56463E+01  8040   0.177E+01    0.553E+00
DAV:   3    -0.139456989322E+03   -0.87329E-01   -0.19506E+00  9456   0.953E+00    0.410E+00
DAV:   4    -0.139454024612E+03    0.29647E-02   -0.44234E-01  8404   0.688E+00    0.331E+00
DAV:   5    -0.139430190368E+03    0.23834E-01   -0.17221E-01  8872   0.422E+00    0.289E+00
DAV:   6    -0.139421739139E+03    0.84512E-02   -0.43324E-02  9152   0.170E+00    0.244E+00
DAV:   7    -0.139420379603E+03    0.13595E-02   -0.14323E-02  8148   0.751E-01    0.159E+00
DAV:   8    -0.139418511323E+03    0.18683E-02   -0.11534E-02  8608   0.974E-01    0.579E-01
DAV:   9    -0.139419201707E+03   -0.69038E-03   -0.49197E-03 10844   0.511E-01    0.369E-01
DAV:  10    -0.139418776595E+03    0.42511E-03   -0.21299E-03  8340   0.343E-01    0.253E-01
DAV:  11    -0.139418777296E+03   -0.70099E-06   -0.51871E-04  8060   0.197E-01    0.152E-01
DAV:  12    -0.139418809056E+03   -0.31760E-04   -0.26458E-04  7516   0.118E-01    0.794E-02
DAV:  13    -0.139418822954E+03   -0.13899E-04   -0.81159E-05  6964   0.638E-02    0.328E-02
DAV:  14    -0.139418828589E+03   -0.56350E-05   -0.16585E-05  4852   0.365E-02
  13 F= -.15288664E+03 E0= -.15284883E+03  d E =-.555963E+00
       N       E                     dE             d eps       ncg     rms          rms(c)
DAV:   1    -0.849888933993E+02    0.54430E+02   -0.13633E+03  7928   0.350E+02    0.490E+01
DAV:   2    -0.184882035460E+03   -0.99893E+02   -0.74646E+02  8040   0.182E+02    0.211E+02
DAV:   3    -0.179273904954E+03    0.56081E+01   -0.20267E+02  9516   0.411E+01    0.771E+01
DAV:   4    -0.151393152272E+03    0.27881E+02   -0.39199E+01  9436   0.495E+01    0.361E+01
DAV:   5    -0.144719330468E+03    0.66738E+01   -0.20149E+01  9584   0.286E+01    0.204E+01
DAV:   6    -0.144340340463E+03    0.37899E+00   -0.10381E+01  8036   0.320E+01    0.171E+01
DAV:   7    -0.140980025157E+03    0.33603E+01   -0.38699E+00  8876   0.198E+01    0.969E+00
DAV:   8    -0.140784258315E+03    0.19577E+00   -0.25724E+00  8600   0.772E+00    0.754E+00
DAV:   9    -0.140886280635E+03   -0.10202E+00   -0.53434E-01  7864   0.421E+00    0.727E+00
DAV:  10    -0.140647420394E+03    0.23886E+00   -0.14789E-01  8320   0.389E+00    0.547E+00
DAV:  11    -0.140449178884E+03    0.19824E+00   -0.37383E-01  8720   0.622E+00    0.298E+00
DAV:  12    -0.140452311307E+03   -0.31324E-02   -0.20238E-01  8168   0.181E+00    0.215E+00
DAV:  13    -0.140430123822E+03    0.22187E-01   -0.33464E-02  8624   0.205E+00    0.149E+00
DAV:  14    -0.140426359031E+03    0.37648E-02   -0.37324E-02  9300   0.141E+00    0.920E-01
DAV:  15    -0.140425468813E+03    0.89022E-03   -0.11924E-02  9504   0.792E-01    0.664E-01
DAV:  16    -0.140425190896E+03    0.27792E-03   -0.41154E-03  9504   0.543E-01    0.598E-01
DAV:  17    -0.140425237471E+03   -0.46575E-04   -0.33424E-03  7664   0.383E-01    0.395E-01
DAV:  18    -0.140425169435E+03    0.68036E-04   -0.10848E-03  8228   0.369E-01    0.281E-01
DAV:  19    -0.140425129910E+03    0.39526E-04   -0.37587E-04  7368   0.206E-01    0.309E-01
DAV:  20    -0.140425189589E+03   -0.59679E-04   -0.87458E-05  6852   0.766E-02    0.259E-01
DAV:  21    -0.140425216422E+03   -0.26833E-04   -0.45793E-05  6724   0.617E-02    0.248E-01
DAV:  22    -0.140425234488E+03   -0.18066E-04   -0.12496E-05  4684   0.251E-02    0.234E-01
DAV:  23    -0.140425258431E+03   -0.23943E-04   -0.15889E-05  4764   0.362E-02    0.202E-01
DAV:  24    -0.140425287690E+03   -0.29259E-04   -0.52767E-06  4576   0.206E-02    0.180E-01
DAV:  25    -0.140425306637E+03   -0.18947E-04   -0.44278E-06  4540   0.109E-02    0.155E-01
DAV:  26    -0.140425317274E+03   -0.10636E-04   -0.22978E-06  4484   0.599E-03    0.140E-01
DAV:  27    -0.140425330631E+03   -0.13358E-04   -0.12523E-06  4456   0.620E-03    0.125E-01
DAV:  28    -0.140425344174E+03   -0.13543E-04   -0.18003E-06  4564   0.979E-03    0.959E-02
DAV:  29    -0.140425352201E+03   -0.80272E-05   -0.13993E-06  4524   0.517E-03
  14 F= -.15392850E+03 E0= -.15388519E+03  d E =-.159782E+01
       N       E                     dE             d eps       ncg     rms          rms(c)
DAV:   1    -0.119387796360E+03    0.21038E+02   -0.61021E+02 10472   0.250E+02    0.219E+01
DAV:   2    -0.145703593547E+03   -0.26316E+02   -0.22879E+02  9568   0.689E+01    0.290E+01
DAV:   3    -0.144715071418E+03    0.98852E+00   -0.42105E+01 10052   0.573E+01    0.160E+01
DAV:   4    -0.143793634519E+03    0.92144E+00   -0.24381E+01  9312   0.492E+01    0.143E+01
DAV:   5    -0.139999548882E+03    0.37941E+01   -0.67585E+00  9496   0.225E+01    0.688E+00
DAV:   6    -0.140214048052E+03   -0.21450E+00   -0.32337E+00  8088   0.798E+00    0.583E+00
DAV:   7    -0.140198397870E+03    0.15650E-01   -0.26735E-01  9208   0.279E+00    0.493E+00
DAV:   8    -0.140180861785E+03    0.17536E-01   -0.11082E-01  8712   0.249E+00    0.367E+00
DAV:   9    -0.140167472853E+03    0.13389E-01   -0.12103E-01  8304   0.251E+00    0.211E+00
DAV:  10    -0.140160558269E+03    0.69146E-02   -0.50989E-02  8280   0.198E+00    0.168E+00
DAV:  11    -0.140151763287E+03    0.87950E-02   -0.20073E-02  8136   0.104E+00    0.109E+00
DAV:  12    -0.140146307757E+03    0.54555E-02   -0.27836E-02  8680   0.144E+00    0.639E-01
DAV:  13    -0.140145323980E+03    0.98378E-03   -0.13102E-02  9412   0.831E-01    0.467E-01
DAV:  14    -0.140145687418E+03   -0.36344E-03   -0.30616E-03  7924   0.240E-01    0.454E-01
DAV:  15    -0.140145792209E+03   -0.10479E-03   -0.10420E-03  7800   0.324E-01    0.308E-01
DAV:  16    -0.140145560358E+03    0.23185E-03   -0.15507E-03  7816   0.418E-01    0.102E-01
DAV:  17    -0.140145548345E+03    0.12013E-04   -0.20181E-04  7664   0.131E-01    0.811E-02
DAV:  18    -0.140145587755E+03   -0.39410E-04   -0.81551E-05  6576   0.897E-02    0.726E-02
DAV:  19    -0.140145622137E+03   -0.34382E-04   -0.16167E-04  6260   0.130E-01    0.628E-02
DAV:  20    -0.140145618863E+03    0.32747E-05   -0.82007E-05  6532   0.831E-02
  15 F= -.15362255E+03 E0= -.15358673E+03  d E =-.129187E+01
       N       E                     dE             d eps       ncg     rms          rms(c)
DAV:   1    -0.135198424849E+03    0.49472E+01   -0.13982E+02 10416   0.129E+02    0.112E+01
DAV:   2    -0.140664899793E+03   -0.54665E+01   -0.55704E+01  7940   0.190E+01    0.527E+00
DAV:   3    -0.141166470730E+03   -0.50157E+00   -0.38054E+00  9660   0.170E+01    0.573E+00
DAV:   4    -0.140823169821E+03    0.34330E+00   -0.16462E+00  8356   0.149E+01    0.373E+00
DAV:   5    -0.140739831284E+03    0.83339E-01   -0.41818E-01 10848   0.667E+00    0.297E+00
DAV:   6    -0.140737370406E+03    0.24609E-02   -0.11552E-01  8056   0.175E+00    0.232E+00
DAV:   7    -0.140737043259E+03    0.32715E-03   -0.16178E-02 10160   0.114E+00    0.175E+00
DAV:   8    -0.140732446102E+03    0.45972E-02   -0.24623E-02  7864   0.143E+00    0.645E-01
DAV:   9    -0.140732344224E+03    0.10188E-03   -0.11640E-02  8848   0.865E-01    0.458E-01
DAV:  10    -0.140732169067E+03    0.17516E-03   -0.36395E-03  7668   0.432E-01    0.339E-01
DAV:  11    -0.140732189159E+03   -0.20093E-04   -0.51155E-04  9400   0.131E-01    0.299E-01
DAV:  12    -0.140732128293E+03    0.60866E-04   -0.43844E-04  7780   0.153E-01    0.141E-01
DAV:  13    -0.140732123657E+03    0.46359E-05   -0.45554E-04  7764   0.164E-01    0.847E-02
DAV:  14    -0.140732119002E+03    0.46554E-05   -0.13611E-04  7200   0.859E-02    0.692E-02
DAV:  15    -0.140732110638E+03    0.83635E-05   -0.33343E-05  5896   0.474E-02
  16 F= -.15422070E+03 E0= -.15418191E+03  d E =-.189002E+01
       N       E                     dE             d eps       ncg     rms          rms(c)
DAV:   1    -0.139416892226E+03    0.13152E+01   -0.35914E+01  9760   0.661E+01    0.437E+00
DAV:   2    -0.140793365366E+03   -0.13765E+01   -0.13948E+01  8028   0.891E+00    0.246E+00
DAV:   3    -0.141127708319E+03   -0.33434E+00   -0.16811E+00  9144   0.141E+01    0.415E+00
DAV:   4    -0.140771557567E+03    0.35615E+00   -0.66082E-01  8528   0.100E+01    0.132E+00
DAV:   5    -0.140776427078E+03   -0.48695E-02   -0.94806E-02  9708   0.209E+00    0.124E+00
DAV:   6    -0.140775889996E+03    0.53708E-03   -0.30474E-02  8228   0.106E+00    0.911E-01
DAV:   7    -0.140774917574E+03    0.97242E-03   -0.80778E-03  8512   0.916E-01    0.589E-01
DAV:   8    -0.140774184478E+03    0.73310E-03   -0.51699E-03  8492   0.575E-01    0.275E-01
DAV:   9    -0.140774019184E+03    0.16529E-03   -0.33212E-03  8800   0.516E-01    0.184E-01
DAV:  10    -0.140774041285E+03   -0.22101E-04   -0.10966E-03  7744   0.213E-01    0.167E-01
DAV:  11    -0.140774055368E+03   -0.14083E-04   -0.11960E-04  7520   0.414E-02    0.161E-01
DAV:  12    -0.140774040402E+03    0.14966E-04   -0.33497E-05  6584   0.415E-02    0.129E-01
DAV:  13    -0.140774004807E+03    0.35595E-04   -0.26532E-04  7832   0.168E-01    0.394E-02
DAV:  14    -0.140774012266E+03   -0.74592E-05   -0.86549E-05  6824   0.507E-02
  17 F= -.15426945E+03 E0= -.15422813E+03  d E =-.193878E+01
       N       E                     dE             d eps       ncg     rms          rms(c)
DAV:   1    -0.140603918213E+03    0.17009E+00   -0.52921E+00  9700   0.250E+01    0.141E+00
DAV:   2    -0.140799340236E+03   -0.19542E+00   -0.19403E+00  8212   0.379E+00    0.111E+00
DAV:   3    -0.140847940033E+03   -0.48600E-01   -0.33358E-01  9148   0.607E+00    0.165E+00
DAV:   4    -0.140791911506E+03    0.56029E-01   -0.13717E-01  8116   0.426E+00    0.495E-01
DAV:   5    -0.140792499616E+03   -0.58811E-03   -0.12210E-02  9892   0.765E-01    0.430E-01
DAV:   6    -0.140792451263E+03    0.48353E-04   -0.38500E-03  8168   0.377E-01    0.302E-01
DAV:   7    -0.140792501807E+03   -0.50544E-04   -0.97569E-04  8676   0.247E-01    0.200E-01
DAV:   8    -0.140792347010E+03    0.15480E-03   -0.65679E-04  8148   0.260E-01    0.902E-02
DAV:   9    -0.140792333417E+03    0.13593E-04   -0.43126E-04  9964   0.200E-01    0.747E-02
DAV:  10    -0.140792330483E+03    0.29344E-05   -0.18914E-04  7660   0.771E-02    0.411E-02
DAV:  11    -0.140792322087E+03    0.83961E-05   -0.40746E-05  4892   0.660E-02
  18 F= -.15428506E+03 E0= -.15424466E+03  d E =-.195439E+01
       N       E                     dE             d eps       ncg     rms          rms(c)
DAV:   1    -0.132609195251E+03    0.81831E+01   -0.20119E+02  9576   0.157E+02    0.145E+01
DAV:   2    -0.139764980220E+03   -0.71558E+01   -0.76407E+01  8208   0.230E+01    0.721E+00
DAV:   3    -0.140860068596E+03   -0.10951E+01   -0.79792E+00 10740   0.268E+01    0.881E+00
DAV:   4    -0.139882191219E+03    0.97788E+00   -0.34084E+00  8388   0.225E+01    0.497E+00
DAV:   5    -0.139704743942E+03    0.17745E+00   -0.82075E-01 10532   0.102E+01    0.388E+00
DAV:   6    -0.139687414124E+03    0.17330E-01   -0.33996E-01  8276   0.399E+00    0.247E+00
DAV:   7    -0.139706343834E+03   -0.18930E-01   -0.74509E-02  9968   0.257E+00    0.168E+00
DAV:   8    -0.139684106341E+03    0.22237E-01   -0.10298E-01  8244   0.275E+00    0.743E-01
DAV:   9    -0.139681140983E+03    0.29654E-02   -0.20933E-02  8024   0.136E+00    0.468E-01
DAV:  10    -0.139682011464E+03   -0.87048E-03   -0.12404E-02  7632   0.599E-01    0.427E-01
DAV:  11    -0.139682041129E+03   -0.29666E-04   -0.10898E-03  8140   0.224E-01    0.373E-01
DAV:  12    -0.139681961514E+03    0.79615E-04   -0.78704E-04  7972   0.190E-01    0.188E-01
DAV:  13    -0.139681915005E+03    0.46509E-04   -0.88478E-04  7976   0.317E-01    0.933E-02
DAV:  14    -0.139681904364E+03    0.10641E-04   -0.23270E-04  8116   0.117E-01    0.587E-02
DAV:  15    -0.139681904821E+03   -0.45751E-06   -0.81246E-05  7540   0.843E-02
  19 F= -.15317408E+03 E0= -.15312832E+03  d E =0.111098E+01
       N       E                     dE             d eps       ncg     rms          rms(c)
DAV:   1    -0.137888076900E+03    0.17938E+01   -0.95646E+01  9288   0.109E+02    0.793E+00
DAV:   2    -0.141397246130E+03   -0.35092E+01   -0.33865E+01  9680   0.213E+01    0.686E+00
DAV:   3    -0.142533004166E+03   -0.11358E+01   -0.90913E+00  9080   0.319E+01    0.882E+00
DAV:   4    -0.140949235038E+03    0.15838E+01   -0.35602E+00  8328   0.204E+01    0.286E+00
DAV:   5    -0.140955452840E+03   -0.62178E-02   -0.51514E-01  9380   0.431E+00    0.229E+00
DAV:   6    -0.140955145579E+03    0.30726E-03   -0.14622E-01  8312   0.259E+00    0.165E+00
DAV:   7    -0.140956066127E+03   -0.92055E-03   -0.48072E-02  8556   0.129E+00    0.112E+00
DAV:   8    -0.140950278176E+03    0.57880E-02   -0.27233E-02  7924   0.175E+00    0.749E-01
DAV:   9    -0.140949279164E+03    0.99901E-03   -0.99042E-03 10308   0.939E-01    0.489E-01
DAV:  10    -0.140948346175E+03    0.93299E-03   -0.59970E-03  8912   0.592E-01    0.299E-01
DAV:  11    -0.140948164414E+03    0.18176E-03   -0.13847E-03  7932   0.266E-01    0.193E-01
DAV:  12    -0.140948142989E+03    0.21425E-04   -0.41199E-04  7972   0.135E-01    0.157E-01
DAV:  13    -0.140948185300E+03   -0.42311E-04   -0.17856E-04  8836   0.613E-02    0.104E-01
DAV:  14    -0.140948182678E+03    0.26223E-05   -0.20470E-04  7376   0.168E-01    0.807E-02
DAV:  15    -0.140948187611E+03   -0.49333E-05   -0.45882E-05  6680   0.655E-02
  20 F= -.15444051E+03 E0= -.15439797E+03  d E =-.155445E+00
       N       E                     dE             d eps       ncg     rms          rms(c)
DAV:   1    -0.131363852519E+03    0.95843E+01   -0.19007E+02 11196   0.183E+02    0.190E+01
DAV:   2    -0.141309061517E+03   -0.99452E+01   -0.10124E+02  8132   0.279E+01    0.101E+01
DAV:   3    -0.142029645232E+03   -0.72058E+00   -0.75442E+00  8608   0.251E+01    0.847E+00
DAV:   4    -0.141789625224E+03    0.24002E+00   -0.43379E+00  9012   0.229E+01    0.649E+00
DAV:   5    -0.141369735139E+03    0.41989E+00   -0.10451E+00 11244   0.110E+01    0.476E+00
DAV:   6    -0.141381883285E+03   -0.12148E-01   -0.29328E-01  8216   0.220E+00    0.423E+00
DAV:   7    -0.141381469043E+03    0.41424E-03   -0.32328E-02  8604   0.816E-01    0.388E+00
DAV:   8    -0.141379522464E+03    0.19466E-02   -0.10761E-02  7728   0.726E-01    0.329E+00
DAV:   9    -0.141376357250E+03    0.31652E-02   -0.79974E-03  8332   0.111E+00    0.223E+00
DAV:  10    -0.141372071053E+03    0.42862E-02   -0.15491E-02  9644   0.107E+00    0.586E-01
DAV:  11    -0.141372103762E+03   -0.32709E-04   -0.58386E-03  7872   0.379E-01    0.491E-01
DAV:  12    -0.141372148277E+03   -0.44516E-04   -0.94795E-04  7912   0.130E-01    0.481E-01
DAV:  13    -0.141372162597E+03   -0.14319E-04   -0.52104E-05  7152   0.265E-02    0.482E-01
DAV:  14    -0.141372044373E+03    0.11822E-03   -0.13359E-04  7676   0.146E-01    0.423E-01
DAV:  15    -0.141371960146E+03    0.84226E-04   -0.48647E-04  9012   0.189E-01    0.197E-01
DAV:  16    -0.141372027622E+03   -0.67476E-04   -0.47032E-04  7784   0.124E-01    0.179E-01
DAV:  17    -0.141372023363E+03    0.42586E-05   -0.75479E-05  7096   0.373E-02
  21 F= -.15485918E+03 E0= -.15481724E+03  d E =-.418673E+00
       N       E                     dE             d eps       ncg     rms          rms(c)
DAV:   1    -0.134456674638E+03    0.69154E+01   -0.13480E+02 11048   0.155E+02    0.136E+01
DAV:   2    -0.141436639879E+03   -0.69800E+01   -0.71153E+01  8036   0.230E+01    0.768E+00
DAV:   3    -0.141875102636E+03   -0.43846E+00   -0.46663E+00  9340   0.196E+01    0.632E+00
DAV:   4    -0.141766854911E+03    0.10825E+00   -0.27180E+00  8668   0.186E+01    0.508E+00
DAV:   5    -0.141472469681E+03    0.29439E+00   -0.70113E-01 11196   0.914E+00    0.350E+00
DAV:   6    -0.141479609146E+03   -0.71395E-02   -0.17662E-01  8388   0.169E+00    0.306E+00
DAV:   7    -0.141479565945E+03    0.43200E-04   -0.19741E-02  8548   0.597E-01    0.283E+00
DAV:   8    -0.141478294755E+03    0.12712E-02   -0.42336E-03  7940   0.421E-01    0.246E+00
DAV:   9    -0.141475780607E+03    0.25141E-02   -0.48915E-03  8204   0.886E-01    0.160E+00
DAV:  10    -0.141472797162E+03    0.29834E-02   -0.11234E-02  9624   0.930E-01    0.392E-01
DAV:  11    -0.141472928557E+03   -0.13140E-03   -0.41492E-03  7880   0.312E-01    0.336E-01
DAV:  12    -0.141472971704E+03   -0.43147E-04   -0.56358E-04  8040   0.985E-02    0.323E-01
DAV:  13    -0.141472974779E+03   -0.30756E-05   -0.31488E-05  6276   0.244E-02
  22 F= -.15495892E+03 E0= -.15491775E+03  d E =-.518413E+00
       N       E                     dE             d eps       ncg     rms          rms(c)
DAV:   1    -0.140205192551E+03    0.12678E+01   -0.27846E+01  9904   0.722E+01    0.416E+00
DAV:   2    -0.141521095029E+03   -0.13159E+01   -0.13451E+01  7644   0.881E+00    0.203E+00
DAV:   3    -0.141584236990E+03   -0.63142E-01   -0.62484E-01 11644   0.570E+00    0.197E+00
DAV:   4    -0.141573554626E+03    0.10682E-01   -0.22156E-01  8516   0.529E+00    0.163E+00
DAV:   5    -0.141554390243E+03    0.19164E-01   -0.52843E-02  8076   0.265E+00    0.123E+00
DAV:   6    -0.141554539084E+03   -0.14884E-03   -0.13543E-02  7976   0.535E-01    0.101E+00
DAV:   7    -0.141553856085E+03    0.68300E-03   -0.24780E-03  8300   0.473E-01    0.651E-01
DAV:   8    -0.141553802248E+03    0.53837E-04   -0.28320E-03  8556   0.483E-01    0.237E-01
DAV:   9    -0.141553817294E+03   -0.15046E-04   -0.16119E-03  9860   0.331E-01    0.170E-01
DAV:  10    -0.141553836785E+03   -0.19491E-04   -0.32370E-04  7720   0.907E-02    0.141E-01
DAV:  11    -0.141553819557E+03    0.17228E-04   -0.95664E-05  7264   0.947E-02    0.975E-02
DAV:  12    -0.141553832022E+03   -0.12466E-04   -0.10289E-04  5712   0.116E-01    0.565E-02
DAV:  13    -0.141553837155E+03   -0.51324E-05   -0.79269E-05  7044   0.597E-02
  23 F= -.15504558E+03 E0= -.15500431E+03  d E =-.866600E-01
       N       E                     dE             d eps       ncg     rms          rms(c)
DAV:   1    -0.138431102185E+03    0.31227E+01   -0.62934E+01  9876   0.108E+02    0.739E+00
DAV:   2    -0.141524733299E+03   -0.30936E+01   -0.31647E+01  7760   0.140E+01    0.362E+00
DAV:   3    -0.141672974763E+03   -0.14824E+00   -0.16514E+00 11392   0.963E+00    0.331E+00
DAV:   4    -0.141658686596E+03    0.14288E-01   -0.64364E-01  8492   0.911E+00    0.277E+00
DAV:   5    -0.141591915257E+03    0.66771E-01   -0.16221E-01  8532   0.461E+00    0.202E+00
DAV:   6    -0.141593606042E+03   -0.16908E-02   -0.41535E-02  8076   0.809E-01    0.174E+00
DAV:   7    -0.141592728962E+03    0.87708E-03   -0.42951E-03  8920   0.464E-01    0.142E+00
DAV:   8    -0.141592012461E+03    0.71650E-03   -0.39696E-03  7944   0.668E-01    0.701E-01
DAV:   9    -0.141591617592E+03    0.39487E-03   -0.50223E-03  9860   0.719E-01    0.296E-01
DAV:  10    -0.141591763976E+03   -0.14638E-03   -0.14430E-03 10400   0.202E-01    0.233E-01
DAV:  11    -0.141591702870E+03    0.61106E-04   -0.29287E-04  7728   0.140E-01    0.189E-01
DAV:  12    -0.141591604770E+03    0.98100E-04   -0.25047E-04  7772   0.182E-01    0.112E-01
DAV:  13    -0.141591647007E+03   -0.42236E-04   -0.21473E-04  9000   0.712E-02    0.732E-02
DAV:  14    -0.141591649771E+03   -0.27641E-05   -0.41428E-05  6724   0.335E-02
  24 F= -.15509255E+03 E0= -.15505134E+03  d E =-.133624E+00
       N       E                     dE             d eps       ncg     rms          rms(c)
DAV:   1    -0.141209671203E+03    0.38198E+00   -0.95549E+00  9816   0.408E+01    0.213E+00
DAV:   2    -0.141622625943E+03   -0.41295E+00   -0.42084E+00  7648   0.486E+00    0.103E+00
DAV:   3    -0.141676173914E+03   -0.53548E-01   -0.30378E-01 10276   0.521E+00    0.162E+00
DAV:   4    -0.141628844789E+03    0.47329E-01   -0.11869E-01  8760   0.412E+00    0.685E-01
DAV:   5    -0.141629066566E+03   -0.22178E-03   -0.12997E-02  9880   0.824E-01    0.596E-01
DAV:   6    -0.141629038111E+03    0.28455E-04   -0.39900E-03  8276   0.369E-01    0.485E-01
DAV:   7    -0.141628875854E+03    0.16226E-03   -0.81804E-04  8084   0.292E-01    0.282E-01
DAV:   8    -0.141628917243E+03   -0.41389E-04   -0.84099E-04  9148   0.245E-01    0.114E-01
DAV:   9    -0.141628913974E+03    0.32698E-05   -0.45240E-04  9076   0.161E-01    0.971E-02
DAV:  10    -0.141628916364E+03   -0.23907E-05   -0.84062E-05  7492   0.574E-02
  25 F= -.15513287E+03 E0= -.15509078E+03  d E =-.403209E-01
       N       E                     dE             d eps       ncg     rms          rms(c)
DAV:   1    -0.141360192736E+03    0.26872E+00   -0.64128E+00  9764   0.336E+01    0.169E+00
DAV:   2    -0.141632680719E+03   -0.27249E+00   -0.27860E+00  7656   0.392E+00    0.813E-01
DAV:   3    -0.141658596416E+03   -0.25916E-01   -0.16562E-01 10948   0.355E+00    0.114E+00
DAV:   4    -0.141638239530E+03    0.20357E-01   -0.61781E-02  8436   0.296E+00    0.572E-01
DAV:   5    -0.141637584877E+03    0.65465E-03   -0.64401E-03  9976   0.709E-01    0.462E-01
DAV:   6    -0.141637533684E+03    0.51194E-04   -0.23977E-03  8200   0.330E-01    0.360E-01
DAV:   7    -0.141637500257E+03    0.33427E-04   -0.67217E-04  8164   0.223E-01    0.176E-01
DAV:   8    -0.141637552628E+03   -0.52371E-04   -0.44729E-04  9620   0.169E-01    0.886E-02
DAV:   9    -0.141637546438E+03    0.61895E-05   -0.18784E-04  9024   0.109E-01    0.708E-02
DAV:  10    -0.141637538445E+03    0.79930E-05   -0.46735E-05  6768   0.542E-02
  26 F= -.15514441E+03 E0= -.15510158E+03  d E =-.518613E-01
       N       E                     dE             d eps       ncg     rms          rms(c)
DAV:   1    -0.141607336051E+03    0.30210E-01   -0.80727E-01 10172   0.118E+01    0.573E-01
DAV:   2    -0.141643148940E+03   -0.35813E-01   -0.36540E-01  7544   0.134E+00    0.278E-01
DAV:   3    -0.141645056728E+03   -0.19078E-02   -0.15868E-02  8948   0.899E-01    0.287E-01
DAV:   4    -0.141644274381E+03    0.78235E-03   -0.43418E-03  9624   0.756E-01    0.195E-01
DAV:   5    -0.141644086742E+03    0.18764E-03   -0.68760E-04  9452   0.294E-01    0.157E-01
DAV:   6    -0.141644088744E+03   -0.20020E-05   -0.19388E-04  7936   0.704E-02    0.128E-01
DAV:   7    -0.141644097823E+03   -0.90792E-05   -0.46708E-05  5192   0.752E-02
  27 F= -.15515097E+03 E0= -.15510812E+03  d E =-.656266E-02
       N       E                     dE             d eps       ncg     rms          rms(c)
DAV:   1    -0.141318198560E+03    0.32589E+00   -0.71911E+00 10368   0.355E+01    0.189E+00
DAV:   2    -0.141653775652E+03   -0.33558E+00   -0.34228E+00  7688   0.407E+00    0.921E-01
DAV:   3    -0.141660529201E+03   -0.67535E-02   -0.85090E-02 10380   0.187E+00    0.740E-01
DAV:   4    -0.141661145791E+03   -0.61659E-03   -0.25967E-02  8248   0.183E+00    0.682E-01
DAV:   5    -0.141657784118E+03    0.33617E-02   -0.83679E-03  7932   0.109E+00    0.520E-01
DAV:   6    -0.141657723963E+03    0.60155E-04   -0.16461E-03  8616   0.221E-01    0.434E-01
DAV:   7    -0.141657695408E+03    0.28555E-04   -0.32049E-04  9108   0.169E-01    0.294E-01
DAV:   8    -0.141657688550E+03    0.68583E-05   -0.61555E-04  8148   0.252E-01    0.955E-02
DAV:   9    -0.141657720186E+03   -0.31636E-04   -0.32266E-04 10680   0.133E-01    0.661E-02
DAV:  10    -0.141657720836E+03   -0.65012E-06   -0.82726E-05  7164   0.528E-02
  28 F= -.15516473E+03 E0= -.15512185E+03  d E =-.203202E-01
       N       E                     dE             d eps       ncg     rms          rms(c)
DAV:   1    -0.140267183304E+03    0.13905E+01   -0.28544E+01 10620   0.706E+01    0.440E+00
DAV:   2    -0.141623803090E+03   -0.13566E+01   -0.13839E+01  7668   0.867E+00    0.227E+00
DAV:   3    -0.141681708057E+03   -0.57905E-01   -0.67816E-01 10424   0.543E+00    0.189E+00
DAV:   4    -0.141685482978E+03   -0.37749E-02   -0.20902E-01  8396   0.541E+00    0.169E+00
DAV:   5    -0.141658392384E+03    0.27091E-01   -0.63209E-02  8876   0.294E+00    0.120E+00
DAV:   6    -0.141658665132E+03   -0.27275E-03   -0.12817E-02  8480   0.500E-01    0.102E+00
DAV:   7    -0.141658518928E+03    0.14620E-03   -0.14804E-03  8456   0.286E-01    0.834E-01
DAV:   8    -0.141658142007E+03    0.37692E-03   -0.17846E-03  7780   0.417E-01    0.408E-01
DAV:   9    -0.141658078484E+03    0.63523E-04   -0.18410E-03 11324   0.443E-01    0.181E-01
DAV:  10    -0.141658083512E+03   -0.50277E-05   -0.64485E-04  8856   0.147E-01    0.133E-01
DAV:  11    -0.141658069391E+03    0.14121E-04   -0.14341E-04  7420   0.113E-01    0.100E-01
DAV:  12    -0.141658081189E+03   -0.11798E-04   -0.45845E-05  6060   0.513E-02    0.709E-02
DAV:  13    -0.141658093676E+03   -0.12487E-04   -0.42265E-05  6580   0.363E-02    0.386E-02
DAV:  14    -0.141658093738E+03   -0.62544E-07   -0.13975E-05  4536   0.319E-02
  29 F= -.15516590E+03 E0= -.15512294E+03  d E =-.214871E-01
       N       E                     dE             d eps       ncg     rms          rms(c)
DAV:   1    -0.141359112140E+03    0.29898E+00   -0.64112E+00 10352   0.334E+01    0.176E+00
DAV:   2    -0.141658573583E+03   -0.29946E+00   -0.30556E+00  7708   0.374E+00    0.743E-01
DAV:   3    -0.141663168973E+03   -0.45954E-02   -0.59823E-02 10044   0.883E-01    0.583E-01
DAV:   4    -0.141663348713E+03   -0.17974E-03   -0.56963E-03  8528   0.757E-01    0.525E-01
DAV:   5    -0.141662476492E+03    0.87222E-03   -0.24836E-03  7848   0.596E-01    0.454E-01
DAV:   6    -0.141662350515E+03    0.12598E-03   -0.53969E-04  9608   0.265E-01    0.360E-01
DAV:   7    -0.141662304600E+03    0.45915E-04   -0.76259E-04  7740   0.264E-01    0.933E-02
DAV:   8    -0.141662349656E+03   -0.45057E-04   -0.40824E-04 10432   0.118E-01    0.545E-02
DAV:   9    -0.141662359199E+03   -0.95423E-05   -0.90980E-05  7400   0.512E-02
  30 F= -.15516970E+03 E0= -.15512681E+03  d E =-.252938E-01
       N       E                     dE             d eps       ncg     rms          rms(c)
DAV:   1    -0.141598180147E+03    0.64170E-01   -0.14658E+00 10128   0.170E+01    0.790E-01
DAV:   2    -0.141663713192E+03   -0.65533E-01   -0.67095E-01  7624   0.188E+00    0.345E-01
DAV:   3    -0.141666148474E+03   -0.24353E-02   -0.22685E-02 11348   0.860E-01    0.314E-01
DAV:   4    -0.141665551054E+03    0.59742E-03   -0.48567E-03  8296   0.780E-01    0.256E-01
DAV:   5    -0.141665267717E+03    0.28334E-03   -0.80151E-04  9128   0.319E-01    0.201E-01
DAV:   6    -0.141665265837E+03    0.18802E-05   -0.25980E-04  8232   0.114E-01    0.164E-01
DAV:   7    -0.141665295964E+03   -0.30128E-04   -0.88592E-05  7940   0.907E-02    0.814E-02
DAV:   8    -0.141665321209E+03   -0.25245E-04   -0.84405E-05  8484   0.768E-02    0.298E-02
DAV:   9    -0.141665330904E+03   -0.96950E-05   -0.23619E-05  5528   0.384E-02
  31 F= -.15517402E+03 E0= -.15513095E+03  d E =-.431966E-02
       N       E                     dE             d eps       ncg     rms          rms(c)
DAV:   1    -0.141044002323E+03    0.62132E+00   -0.12999E+01 10036   0.510E+01    0.263E+00
DAV:   2    -0.141653447311E+03   -0.60944E+00   -0.62302E+00  7780   0.565E+00    0.107E+00
DAV:   3    -0.141677603763E+03   -0.24156E-01   -0.22120E-01 11700   0.282E+00    0.110E+00
DAV:   4    -0.141671250545E+03    0.63532E-02   -0.56607E-02  8276   0.271E+00    0.895E-01
DAV:   5    -0.141667784424E+03    0.34661E-02   -0.10153E-02  8332   0.111E+00    0.708E-01
DAV:   6    -0.141667750466E+03    0.33958E-04   -0.32606E-03  8584   0.294E-01    0.597E-01
DAV:   7    -0.141667580324E+03    0.17014E-03   -0.68734E-04  7892   0.265E-01    0.332E-01
DAV:   8    -0.141667683898E+03   -0.10357E-03   -0.81792E-04  9988   0.238E-01    0.116E-01
DAV:   9    -0.141667702250E+03   -0.18353E-04   -0.38507E-04 10060   0.143E-01    0.796E-02
DAV:  10    -0.141667695632E+03    0.66184E-05   -0.69647E-05  7612   0.645E-02
  32 F= -.15518049E+03 E0= -.15513693E+03  d E =-.107876E-01
       N       E                     dE             d eps       ncg     rms          rms(c)
DAV:   1    -0.141641801140E+03    0.25901E-01   -0.62948E-01  9880   0.108E+01    0.478E-01
DAV:   2    -0.141668649405E+03   -0.26848E-01   -0.27394E-01  7584   0.124E+00    0.263E-01
DAV:   3    -0.141670559750E+03   -0.19103E-02   -0.13665E-02  7896   0.103E+00    0.311E-01
DAV:   4    -0.141669213973E+03    0.13458E-02   -0.41839E-03  8304   0.761E-01    0.164E-01
DAV:   5    -0.141669206089E+03    0.78845E-05   -0.55759E-04 11424   0.221E-01    0.143E-01
DAV:   6    -0.141669194949E+03    0.11140E-04   -0.16877E-04  7696   0.108E-01    0.108E-01
DAV:   7    -0.141669200333E+03   -0.53836E-05   -0.58355E-05  5988   0.801E-02
  33 F= -.15518302E+03 E0= -.15513953E+03  d E =-.253032E-02
       N       E                     dE             d eps       ncg     rms          rms(c)
DAV:   1    -0.141608252884E+03    0.60942E-01   -0.13913E+00  9892   0.161E+01    0.727E-01
DAV:   2    -0.141667449027E+03   -0.59196E-01   -0.60586E-01  7620   0.180E+00    0.358E-01
DAV:   3    -0.141669943377E+03   -0.24944E-02   -0.22517E-02  9688   0.104E+00    0.341E-01
DAV:   4    -0.141669042611E+03    0.90077E-03   -0.58474E-03  8960   0.858E-01    0.252E-01
DAV:   5    -0.141668806574E+03    0.23604E-03   -0.10930E-03 10340   0.370E-01    0.202E-01
DAV:   6    -0.141668776692E+03    0.29882E-04   -0.32167E-04  8456   0.168E-01    0.149E-01
DAV:   7    -0.141668824074E+03   -0.47382E-04   -0.15899E-04  8732   0.135E-01    0.737E-02
DAV:   8    -0.141668829520E+03   -0.54462E-05   -0.19927E-04  8516   0.121E-01    0.232E-02
DAV:   9    -0.141668836153E+03   -0.66325E-05   -0.45271E-05  7144   0.359E-02
  34 F= -.15518419E+03 E0= -.15514080E+03  d E =-.369669E-02
       N       E                     dE             d eps       ncg     rms          rms(c)
DAV:   1    -0.141651634667E+03    0.17195E-01   -0.39713E-01  9768   0.857E+00    0.392E-01
DAV:   2    -0.141668613811E+03   -0.16979E-01   -0.17398E-01  7544   0.952E-01    0.173E-01
DAV:   3    -0.141669154325E+03   -0.54051E-03   -0.53820E-03 10804   0.313E-01    0.131E-01
DAV:   4    -0.141669162656E+03   -0.83318E-05   -0.88266E-04  8488   0.310E-01    0.129E-01
DAV:   5    -0.141669060202E+03    0.10245E-03   -0.21357E-04  6784   0.182E-01    0.970E-02
DAV:   6    -0.141669067338E+03   -0.71356E-05   -0.48941E-05  6528   0.646E-02
  35 F= -.15518526E+03 E0= -.15514181E+03  d E =-.107434E-02
       N       E                     dE             d eps       ncg     rms          rms(c)
DAV:   1    -0.141510307025E+03    0.15875E+00   -0.35608E+00  9812   0.258E+01    0.121E+00
DAV:   2    -0.141665027655E+03   -0.15472E+00   -0.15797E+00  7640   0.286E+00    0.532E-01
DAV:   3    -0.141669178988E+03   -0.41513E-02   -0.48999E-02  9808   0.778E-01    0.400E-01
DAV:   4    -0.141669138506E+03    0.40482E-04   -0.36518E-03  8656   0.364E-01    0.362E-01
DAV:   5    -0.141669002088E+03    0.13642E-03   -0.54614E-04  7792   0.272E-01    0.322E-01
DAV:   6    -0.141668959097E+03    0.42991E-04   -0.47876E-04  7600   0.279E-01    0.275E-01
DAV:   7    -0.141668982090E+03   -0.22993E-04   -0.63948E-04 10688   0.337E-01    0.781E-02
DAV:   8    -0.141668957826E+03    0.24264E-04   -0.41527E-04 10840   0.168E-01    0.367E-02
DAV:   9    -0.141668969111E+03   -0.11285E-04   -0.10206E-04  7620   0.470E-02    0.317E-02
DAV:  10    -0.141668969658E+03   -0.54645E-06   -0.96438E-06  4280   0.159E-02
  36 F= -.15518773E+03 E0= -.15514423E+03  d E =-.354293E-02
       N       E                     dE             d eps       ncg     rms          rms(c)
DAV:   1    -0.141012070441E+03    0.65690E+00   -0.14060E+01  9784   0.515E+01    0.270E+00
DAV:   2    -0.141647264555E+03   -0.63519E+00   -0.64889E+00  7664   0.580E+00    0.109E+00
DAV:   3    -0.141666463833E+03   -0.19199E-01   -0.22436E-01  9936   0.195E+00    0.924E-01
DAV:   4    -0.141667883208E+03   -0.14194E-02   -0.26470E-02  8556   0.158E+00    0.861E-01
DAV:   5    -0.141665240065E+03    0.26431E-02   -0.88846E-03  7812   0.111E+00    0.738E-01
DAV:   6    -0.141664868827E+03    0.37124E-03   -0.16280E-03  9492   0.407E-01    0.611E-01
DAV:   7    -0.141664609902E+03    0.25892E-03   -0.13837E-03  7916   0.384E-01    0.204E-01
DAV:   8    -0.141664730916E+03   -0.12101E-03   -0.99271E-04 10980   0.212E-01    0.815E-02
DAV:   9    -0.141664751162E+03   -0.20246E-04   -0.26734E-04  7848   0.102E-01    0.661E-02
DAV:  10    -0.141664761009E+03   -0.98473E-05   -0.30271E-05  5792   0.417E-02
  37 F= -.15518882E+03 E0= -.15514514E+03  d E =-.463774E-02
       N       E                     dE             d eps       ncg     rms          rms(c)
DAV:   1    -0.141577631725E+03    0.87119E-01   -0.22190E+00  9568   0.190E+01    0.904E-01
DAV:   2    -0.141664956756E+03   -0.87325E-01   -0.89339E-01  7660   0.223E+00    0.448E-01
DAV:   3    -0.141671004424E+03   -0.60477E-02   -0.43259E-02  9744   0.176E+00    0.545E-01
DAV:   4    -0.141666824039E+03    0.41804E-02   -0.14197E-02  8648   0.144E+00    0.300E-01
DAV:   5    -0.141666640667E+03    0.18337E-03   -0.18526E-03 10532   0.420E-01    0.241E-01
DAV:   6    -0.141666606502E+03    0.34165E-04   -0.63755E-04  8152   0.214E-01    0.175E-01
DAV:   7    -0.141666666369E+03   -0.59867E-04   -0.26444E-04  7928   0.171E-01    0.793E-02
DAV:   8    -0.141666677123E+03   -0.10754E-04   -0.20333E-04  8908   0.103E-01    0.386E-02
DAV:   9    -0.141666671157E+03    0.59656E-05   -0.66346E-05  7248   0.761E-02
  38 F= -.15519210E+03 E0= -.15514819E+03  d E =-.327635E-02
       N       E                     dE             d eps       ncg     rms          rms(c)
DAV:   1    -0.141666279094E+03    0.39803E-03   -0.80317E-03  9736   0.114E+00    0.602E-02
DAV:   2    -0.141666592706E+03   -0.31361E-03   -0.32666E-03  7540   0.141E-01    0.313E-02
DAV:   3    -0.141666636174E+03   -0.43468E-04   -0.21274E-04  7892   0.144E-01    0.417E-02
DAV:   4    -0.141666603404E+03    0.32771E-04   -0.11255E-04  4836   0.137E-01    0.217E-02
DAV:   5    -0.141666603794E+03   -0.39040E-06   -0.11184E-05  4228   0.370E-02
  39 F= -.15519212E+03 E0= -.15514815E+03  d E =-.329290E-02
       N       E                     dE             d eps       ncg     rms          rms(c)
DAV:   1    -0.141637658645E+03    0.28945E-01   -0.77622E-01  9716   0.115E+01    0.527E-01
DAV:   2    -0.141668680840E+03   -0.31022E-01   -0.31765E-01  7544   0.134E+00    0.261E-01
DAV:   3    -0.141669712069E+03   -0.10312E-02   -0.10673E-02  8260   0.644E-01    0.211E-01
DAV:   4    -0.141669585036E+03    0.12703E-03   -0.25313E-03  8544   0.565E-01    0.182E-01
DAV:   5    -0.141669392052E+03    0.19298E-03   -0.70973E-04 10680   0.318E-01    0.142E-01
DAV:   6    -0.141669383267E+03    0.87844E-05   -0.14571E-04  8544   0.110E-01    0.993E-02
DAV:   7    -0.141669416152E+03   -0.32885E-04   -0.67676E-05  6788   0.883E-02    0.534E-02
DAV:   8    -0.141669431195E+03   -0.15043E-04   -0.73548E-05  7436   0.731E-02    0.222E-02
DAV:   9    -0.141669433744E+03   -0.25486E-05   -0.23772E-05  4768   0.432E-02
  40 F= -.15519557E+03 E0= -.15515170E+03  d E =-.345271E-02
       N       E                     dE             d eps       ncg     rms          rms(c)
DAV:   1    -0.141385039533E+03    0.28439E+00   -0.69370E+00  9664   0.343E+01    0.171E+00
DAV:   2    -0.141668869020E+03   -0.28383E+00   -0.29011E+00  7624   0.410E+00    0.808E-01
DAV:   3    -0.141680231677E+03   -0.11363E-01   -0.11107E-01 11252   0.229E+00    0.745E-01
DAV:   4    -0.141678243970E+03    0.19877E-02   -0.32861E-02  8416   0.212E+00    0.619E-01
DAV:   5    -0.141675404753E+03    0.28392E-02   -0.73346E-03  8180   0.104E+00    0.457E-01
DAV:   6    -0.141675338500E+03    0.66254E-04   -0.19689E-03  8828   0.289E-01    0.337E-01
DAV:   7    -0.141675424531E+03   -0.86032E-04   -0.66718E-04  8400   0.262E-01    0.149E-01
DAV:   8    -0.141675455193E+03   -0.30661E-04   -0.63891E-04  9476   0.213E-01    0.682E-02
DAV:   9    -0.141675454057E+03    0.11352E-05   -0.20095E-04  8696   0.124E-01    0.548E-02
DAV:  10    -0.141675458514E+03   -0.44568E-05   -0.62017E-05  6616   0.362E-02
  41 F= -.15520355E+03 E0= -.15515991E+03  d E =-.114295E-01
       N       E                     dE             d eps       ncg     rms          rms(c)
DAV:   1    -0.140477057421E+03    0.11984E+01   -0.27388E+01  9660   0.686E+01    0.383E+00
DAV:   2    -0.141658403435E+03   -0.11813E+01   -0.12069E+01  7836   0.845E+00    0.189E+00
DAV:   3    -0.141705627724E+03   -0.47224E-01   -0.45269E-01 11544   0.535E+00    0.177E+00
DAV:   4    -0.141693948745E+03    0.11679E-01   -0.18268E-01  8528   0.521E+00    0.146E+00
DAV:   5    -0.141675964227E+03    0.17985E-01   -0.42023E-02  8308   0.245E+00    0.103E+00
DAV:   6    -0.141676046943E+03   -0.82716E-04   -0.12359E-02  8396   0.572E-01    0.811E-01
DAV:   7    -0.141675886771E+03    0.16017E-03   -0.24221E-03  8012   0.431E-01    0.473E-01
DAV:   8    -0.141675957060E+03   -0.70289E-04   -0.23102E-03  9352   0.458E-01    0.190E-01
DAV:   9    -0.141675936963E+03    0.20097E-04   -0.12487E-03  9468   0.331E-01    0.138E-01
DAV:  10    -0.141675962859E+03   -0.25896E-04   -0.32854E-04  7712   0.849E-02    0.107E-01
DAV:  11    -0.141675943884E+03    0.18975E-04   -0.87300E-05  6964   0.105E-01    0.626E-02
DAV:  12    -0.141675956077E+03   -0.12194E-04   -0.33244E-05  4980   0.685E-02    0.404E-02
DAV:  13    -0.141675957280E+03   -0.12032E-05   -0.42402E-05  6096   0.471E-02
  42 F= -.15520817E+03 E0= -.15516508E+03  d E =-.160571E-01
       N       E                     dE             d eps       ncg     rms          rms(c)
DAV:   1    -0.141659228208E+03    0.16728E-01   -0.47181E-01  9480   0.854E+00    0.394E-01
DAV:   2    -0.141676756540E+03   -0.17528E-01   -0.17970E-01  7584   0.101E+00    0.187E-01
DAV:   3    -0.141677419592E+03   -0.66305E-03   -0.59896E-03  8308   0.514E-01    0.172E-01
DAV:   4    -0.141677191034E+03    0.22856E-03   -0.13535E-03  8304   0.421E-01    0.128E-01
DAV:   5    -0.141677138884E+03    0.52149E-04   -0.27805E-04  9848   0.183E-01    0.104E-01
DAV:   6    -0.141677146553E+03   -0.76685E-05   -0.93858E-05  7364   0.874E-02
  43 F= -.15521003E+03 E0= -.15516696E+03  d E =-.185369E-02
       N       E                     dE             d eps       ncg     rms          rms(c)
DAV:   1    -0.141517599906E+03    0.15954E+00   -0.42359E+00  9440   0.257E+01    0.122E+00
DAV:   2    -0.141677090441E+03   -0.15949E+00   -0.16308E+00  7696   0.303E+00    0.573E-01
DAV:   3    -0.141681348359E+03   -0.42579E-02   -0.50580E-02 11056   0.114E+00    0.449E-01
DAV:   4    -0.141681693838E+03   -0.34548E-03   -0.88434E-03  8364   0.105E+00    0.432E-01
DAV:   5    -0.141680575998E+03    0.11178E-02   -0.35285E-03  7952   0.748E-01    0.329E-01
DAV:   6    -0.141680447401E+03    0.12860E-03   -0.74646E-04  9688   0.290E-01    0.213E-01
DAV:   7    -0.141680583735E+03   -0.13633E-03   -0.55342E-04  9328   0.214E-01    0.716E-02
DAV:   8    -0.141680566181E+03    0.17555E-04   -0.37242E-04  8136   0.151E-01    0.388E-02
DAV:   9    -0.141680571426E+03   -0.52448E-05   -0.48426E-05  6888   0.487E-02
  44 F= -.15523040E+03 E0= -.15518741E+03  d E =-.222229E-01
       N       E                     dE             d eps       ncg     rms          rms(c)
DAV:   1    -0.141018868849E+03    0.66170E+00   -0.16804E+01  9420   0.511E+01    0.269E+00
DAV:   2    -0.141670457429E+03   -0.65159E+00   -0.66667E+00  7768   0.610E+00    0.115E+00
DAV:   3    -0.141687417897E+03   -0.16960E-01   -0.22088E-01  9836   0.194E+00    0.915E-01
DAV:   4    -0.141687350306E+03    0.67590E-04   -0.20291E-02  8540   0.109E+00    0.809E-01
DAV:   5    -0.141687573755E+03   -0.22345E-03   -0.74024E-03  8028   0.106E+00    0.691E-01
DAV:   6    -0.141686180661E+03    0.13931E-02   -0.47768E-03  8064   0.896E-01    0.551E-01
DAV:   7    -0.141685988615E+03    0.19205E-03   -0.27130E-03  9652   0.598E-01    0.120E-01
DAV:   8    -0.141686069650E+03   -0.81036E-04   -0.14419E-03  9936   0.238E-01    0.111E-01
DAV:   9    -0.141686077798E+03   -0.81474E-05   -0.23904E-04  7848   0.858E-02    0.875E-02
DAV:  10    -0.141686075508E+03    0.22896E-05   -0.18996E-05  4524   0.397E-02
  45 F= -.15523944E+03 E0= -.15519672E+03  d E =-.312666E-01
       N       E                     dE             d eps       ncg     rms          rms(c)
DAV:   1    -0.138900499395E+03    0.27856E+01   -0.66050E+01  9400   0.102E+02    0.643E+00
DAV:   2    -0.141642592900E+03   -0.27421E+01   -0.28062E+01  7808   0.129E+01    0.292E+00
DAV:   3    -0.141722374356E+03   -0.79781E-01   -0.10068E+00 11544   0.659E+00    0.254E+00
DAV:   4    -0.141728076727E+03   -0.57024E-02   -0.28305E-01  8348   0.649E+00    0.232E+00
DAV:   5    -0.141691659481E+03    0.36417E-01   -0.89459E-02  8388   0.355E+00    0.172E+00
DAV:   6    -0.141690856129E+03    0.80335E-03   -0.21834E-02  8696   0.953E-01    0.138E+00
DAV:   7    -0.141691057377E+03   -0.20125E-03   -0.70768E-03  8164   0.783E-01    0.722E-01
DAV:   8    -0.141690415988E+03    0.64139E-03   -0.88334E-03  9268   0.891E-01    0.274E-01
DAV:   9    -0.141690433192E+03   -0.17204E-04   -0.29943E-03 10352   0.517E-01    0.256E-01
DAV:  10    -0.141690442152E+03   -0.89605E-05   -0.10823E-03  7572   0.168E-01    0.178E-01
DAV:  11    -0.141690368956E+03    0.73196E-04   -0.24435E-04  7628   0.201E-01    0.948E-02
DAV:  12    -0.141690405207E+03   -0.36251E-04   -0.10157E-04  8380   0.807E-02    0.602E-02
DAV:  13    -0.141690409278E+03   -0.40707E-05   -0.84690E-05  6760   0.692E-02
  46 F= -.15524963E+03 E0= -.15520750E+03  d E =-.414572E-01
       N       E                     dE             d eps       ncg     rms          rms(c)
DAV:   1    -0.141494302820E+03    0.19610E+00   -0.62760E+00  9136   0.284E+01    0.143E+00
DAV:   2    -0.141704221124E+03   -0.20992E+00   -0.21476E+00  7640   0.341E+00    0.631E-01
DAV:   3    -0.141711521669E+03   -0.73005E-02   -0.71543E-02 11380   0.158E+00    0.601E-01
DAV:   4    -0.141709936326E+03    0.15853E-02   -0.16241E-02  8280   0.152E+00    0.490E-01
DAV:   5    -0.141708643843E+03    0.12925E-02   -0.37408E-03  8268   0.742E-01    0.368E-01
DAV:   6    -0.141708647470E+03   -0.36269E-05   -0.14569E-03  8848   0.386E-01    0.224E-01
DAV:   7    -0.141708758846E+03   -0.11138E-03   -0.85479E-04  8664   0.271E-01    0.703E-02
DAV:   8    -0.141708749910E+03    0.89360E-05   -0.36714E-04  8256   0.122E-01    0.478E-02
DAV:   9    -0.141708749067E+03    0.84282E-06   -0.49084E-05  7164   0.616E-02
  47 F= -.15526947E+03 E0= -.15522751E+03  d E =-.198375E-01
       N       E                     dE             d eps       ncg     rms          rms(c)
DAV:   1    -0.139723305970E+03    0.19854E+01   -0.55448E+01  9128   0.849E+01    0.529E+00
DAV:   2    -0.141710728294E+03   -0.19874E+01   -0.20349E+01  7704   0.106E+01    0.222E+00
DAV:   3    -0.141763881579E+03   -0.53153E-01   -0.74725E-01 10024   0.394E+00    0.186E+00
DAV:   4    -0.141762873135E+03    0.10084E-02   -0.77234E-02  8632   0.209E+00    0.158E+00
DAV:   5    -0.141764751638E+03   -0.18785E-02   -0.23301E-02  7988   0.184E+00    0.132E+00
DAV:   6    -0.141760382030E+03    0.43696E-02   -0.20517E-02  8228   0.184E+00    0.111E+00
DAV:   7    -0.141758767427E+03    0.16146E-02   -0.10333E-02  9464   0.121E+00    0.283E-01
DAV:   8    -0.141758786466E+03   -0.19039E-04   -0.53710E-03  9344   0.527E-01    0.237E-01
DAV:   9    -0.141758881320E+03   -0.94854E-04   -0.10702E-03  7640   0.142E-01    0.208E-01
DAV:  10    -0.141758866053E+03    0.15267E-04   -0.10742E-04  7456   0.774E-02    0.168E-01
DAV:  11    -0.141758846846E+03    0.19207E-04   -0.11235E-04  6932   0.125E-01    0.889E-02
DAV:  12    -0.141758888321E+03   -0.41476E-04   -0.13576E-04  9144   0.832E-02    0.364E-02
DAV:  13    -0.141758892910E+03   -0.45885E-05   -0.46943E-05  7072   0.529E-02
  48 F= -.15532369E+03 E0= -.15528219E+03  d E =-.740536E-01
       N       E                     dE             d eps       ncg     rms          rms(c)
DAV:   1    -0.133169534799E+03    0.85894E+01   -0.21540E+02  9312   0.168E+02    0.149E+01
DAV:   2    -0.141676919757E+03   -0.85074E+01   -0.86947E+01  7804   0.248E+01    0.732E+00
DAV:   3    -0.142179722311E+03   -0.50280E+00   -0.49744E+00  9956   0.200E+01    0.652E+00
DAV:   4    -0.142057842946E+03    0.12188E+00   -0.26078E+00  9324   0.180E+01    0.533E+00
DAV:   5    -0.141797576475E+03    0.26027E+00   -0.66058E-01 10984   0.855E+00    0.388E+00
DAV:   6    -0.141802868131E+03   -0.52917E-02   -0.18005E-01  8180   0.204E+00    0.335E+00
DAV:   7    -0.141803116075E+03   -0.24794E-03   -0.29634E-02  8608   0.103E+00    0.280E+00
DAV:   8    -0.141803627421E+03   -0.51135E-03   -0.19493E-02  7976   0.119E+00    0.159E+00
DAV:   9    -0.141798938989E+03    0.46884E-02   -0.28539E-02  9168   0.202E+00    0.621E-01
DAV:  10    -0.141799391949E+03   -0.45296E-03   -0.89396E-03 10320   0.452E-01    0.519E-01
DAV:  11    -0.141798811376E+03    0.58057E-03   -0.16973E-03  7596   0.348E-01    0.392E-01
DAV:  12    -0.141798498543E+03    0.31283E-03   -0.57578E-04  8144   0.273E-01    0.250E-01
DAV:  13    -0.141798612537E+03   -0.11399E-03   -0.67567E-04  9920   0.167E-01    0.145E-01
DAV:  14    -0.141798638984E+03   -0.26447E-04   -0.36535E-04  7664   0.875E-02    0.128E-01
DAV:  15    -0.141798625970E+03    0.13015E-04   -0.47922E-05  6824   0.368E-02    0.103E-01
DAV:  16    -0.141798618152E+03    0.78177E-05   -0.80277E-06  4400   0.293E-02
  49 F= -.15536989E+03 E0= -.15532956E+03  d E =-.120254E+00
       N       E                     dE             d eps       ncg     rms          rms(c)
DAV:   1    -0.140480704961E+03    0.13179E+01   -0.35571E+01  9184   0.696E+01    0.417E+00
DAV:   2    -0.141833626869E+03   -0.13529E+01   -0.13856E+01  7800   0.861E+00    0.186E+00
DAV:   3    -0.141867308751E+03   -0.33682E-01   -0.46206E-01 10148   0.377E+00    0.159E+00
DAV:   4    -0.141870120123E+03   -0.28114E-02   -0.96200E-02  8272   0.349E+00    0.140E+00
DAV:   5    -0.141860104241E+03    0.10016E-01   -0.40321E-02  7972   0.247E+00    0.114E+00
DAV:   6    -0.141858167226E+03    0.19370E-02   -0.89956E-03  9656   0.978E-01    0.832E-01
DAV:   7    -0.141857819697E+03    0.34753E-03   -0.66641E-03  7872   0.645E-01    0.264E-01
DAV:   8    -0.141858012035E+03   -0.19234E-03   -0.29396E-03  9000   0.386E-01    0.151E-01
DAV:   9    -0.141858057357E+03   -0.45322E-04   -0.57026E-04  7652   0.115E-01    0.118E-01
DAV:  10    -0.141858073427E+03   -0.16069E-04   -0.57511E-05  7120   0.752E-02    0.812E-02
DAV:  11    -0.141858080303E+03   -0.68762E-05   -0.38717E-05  6532   0.757E-02
  50 F= -.15541243E+03 E0= -.15537184E+03  d E =-.425447E-01
       N       E                     dE             d eps       ncg     rms          rms(c)
DAV:   1    -0.139647907969E+03    0.22102E+01   -0.56327E+01  9184   0.879E+01    0.576E+00
DAV:   2    -0.141846902368E+03   -0.21990E+01   -0.22540E+01  7744   0.111E+01    0.260E+00
DAV:   3    -0.141895621687E+03   -0.48719E-01   -0.79442E-01  9996   0.484E+00    0.204E+00
DAV:   4    -0.141891886971E+03    0.37347E-02   -0.84449E-02  8176   0.244E+00    0.169E+00
DAV:   5    -0.141893335891E+03   -0.14489E-02   -0.27240E-02  8128   0.194E+00    0.145E+00
DAV:   6    -0.141888255781E+03    0.50801E-02   -0.18023E-02  8348   0.169E+00    0.122E+00
DAV:   7    -0.141886991225E+03    0.12646E-02   -0.11273E-02  9424   0.114E+00    0.316E-01
DAV:   8    -0.141887032306E+03   -0.41081E-04   -0.57183E-03  9256   0.510E-01    0.207E-01
DAV:   9    -0.141887058275E+03   -0.25969E-04   -0.98880E-04  7724   0.137E-01    0.164E-01
DAV:  10    -0.141887067375E+03   -0.90995E-05   -0.15690E-04  7524   0.882E-02    0.127E-01
DAV:  11    -0.141887119077E+03   -0.51703E-04   -0.10486E-04  7196   0.111E-01    0.780E-02
DAV:  12    -0.141887116402E+03    0.26750E-05   -0.53503E-05  6692   0.734E-02
  51 F= -.15544159E+03 E0= -.15540060E+03  d E =-.717015E-01
       N       E                     dE             d eps       ncg     rms          rms(c)
DAV:   1    -0.139684394045E+03    0.22027E+01   -0.51874E+01  9352   0.902E+01    0.575E+00
DAV:   2    -0.141909142108E+03   -0.22247E+01   -0.22557E+01  7876   0.124E+01    0.320E+00
DAV:   3    -0.142245261796E+03   -0.33612E+00   -0.19551E+00  9924   0.148E+01    0.429E+00
DAV:   4    -0.141945948773E+03    0.29931E+00   -0.89173E-01  8744   0.112E+01    0.196E+00
DAV:   5    -0.141928947986E+03    0.17001E-01   -0.13693E-01 10760   0.320E+00    0.158E+00
DAV:   6    -0.141930293167E+03   -0.13452E-02   -0.46737E-02  8224   0.109E+00    0.131E+00
DAV:   7    -0.141929763947E+03    0.52922E-03   -0.67788E-03  8632   0.616E-01    0.105E+00
DAV:   8    -0.141929781878E+03   -0.17932E-04   -0.44125E-03  8100   0.569E-01    0.569E-01
DAV:   9    -0.141929217252E+03    0.56463E-03   -0.54195E-03  8976   0.805E-01    0.249E-01
DAV:  10    -0.141929283154E+03   -0.65902E-04   -0.15851E-03 10360   0.207E-01    0.190E-01
DAV:  11    -0.141929229241E+03    0.53913E-04   -0.33955E-04  7592   0.155E-01    0.151E-01
DAV:  12    -0.141929232304E+03   -0.30628E-05   -0.11834E-04  7812   0.116E-01    0.110E-01
DAV:  13    -0.141929255522E+03   -0.23219E-04   -0.17685E-04  8272   0.587E-02    0.621E-02
DAV:  14    -0.141929252730E+03    0.27926E-05   -0.26403E-05  5804   0.392E-02
  52 F= -.15548182E+03 E0= -.15544182E+03  d E =-.402290E-01
       N       E                     dE             d eps       ncg     rms          rms(c)
DAV:   1    -0.141837064821E+03    0.92191E-01   -0.24162E+00  9336   0.191E+01    0.939E-01
DAV:   2    -0.141930481114E+03   -0.93416E-01   -0.95508E-01  7560   0.230E+00    0.487E-01
DAV:   3    -0.141937637306E+03   -0.71562E-02   -0.48236E-02  8312   0.201E+00    0.604E-01
DAV:   4    -0.141932241792E+03    0.53955E-02   -0.17408E-02  8496   0.161E+00    0.303E-01
DAV:   5    -0.141932049455E+03    0.19234E-03   -0.25129E-03 11352   0.464E-01    0.253E-01
DAV:   6    -0.141931999067E+03    0.50388E-04   -0.74242E-04  8132   0.205E-01    0.187E-01
DAV:   7    -0.141932059436E+03   -0.60369E-04   -0.26373E-04  8168   0.169E-01    0.119E-01
DAV:   8    -0.141932078522E+03   -0.19086E-04   -0.26353E-04  8640   0.147E-01    0.418E-02
DAV:   9    -0.141932088625E+03   -0.10102E-04   -0.11328E-04  8284   0.844E-02    0.295E-02
DAV:  10    -0.141932091818E+03   -0.31934E-05   -0.36647E-05  6696   0.303E-02
  53 F= -.15548496E+03 E0= -.15544476E+03  d E =-.433686E-01
       N       E                     dE             d eps       ncg     rms          rms(c)
DAV:   1    -0.140699648752E+03    0.12324E+01   -0.26602E+01  9708   0.713E+01    0.396E+00
DAV:   2    -0.141945400910E+03   -0.12458E+01   -0.12744E+01  7640   0.848E+00    0.170E+00
DAV:   3    -0.141991347600E+03   -0.45947E-01   -0.49016E-01 11712   0.414E+00    0.155E+00
DAV:   4    -0.141991602953E+03   -0.25535E-03   -0.11630E-01  8276   0.400E+00    0.142E+00
DAV:   5    -0.141979062407E+03    0.12541E-01   -0.32076E-02  8148   0.211E+00    0.108E+00
DAV:   6    -0.141979041198E+03    0.21209E-04   -0.74934E-03  8332   0.475E-01    0.912E-01
DAV:   7    -0.141979299758E+03   -0.25856E-03   -0.16829E-03  8568   0.420E-01    0.589E-01
DAV:   8    -0.141979131970E+03    0.16779E-03   -0.28919E-03  8584   0.549E-01    0.178E-01
DAV:   9    -0.141979283201E+03   -0.15123E-03   -0.13594E-03 10816   0.280E-01    0.150E-01
DAV:  10    -0.141979277393E+03    0.58083E-05   -0.43018E-04  7624   0.129E-01    0.108E-01
DAV:  11    -0.141979276935E+03    0.45798E-06   -0.57997E-05  6684   0.853E-02
  54 F= -.15552810E+03 E0= -.15548761E+03  d E =-.431474E-01
       N       E                     dE             d eps       ncg     rms          rms(c)
DAV:   1    -0.139405077990E+03    0.25742E+01   -0.51907E+01  9688   0.997E+01    0.617E+00
DAV:   2    -0.141935711519E+03   -0.25306E+01   -0.25888E+01  7660   0.123E+01    0.278E+00
DAV:   3    -0.142055505777E+03   -0.11979E+00   -0.11691E+00 12036   0.766E+00    0.268E+00
DAV:   4    -0.142040377064E+03    0.15129E-01   -0.37065E-01  8336   0.755E+00    0.230E+00
DAV:   5    -0.142001561057E+03    0.38816E-01   -0.88779E-02  8044   0.340E+00    0.168E+00
DAV:   6    -0.142002709499E+03   -0.11484E-02   -0.26792E-02  8060   0.726E-01    0.144E+00
DAV:   7    -0.142002929335E+03   -0.21984E-03   -0.32088E-03  8208   0.483E-01    0.106E+00
DAV:   8    -0.142002830953E+03    0.98382E-04   -0.36567E-03  8308   0.593E-01    0.467E-01
DAV:   9    -0.142002789725E+03    0.41228E-04   -0.30824E-03 10660   0.595E-01    0.221E-01
DAV:  10    -0.142002854471E+03   -0.64747E-04   -0.12318E-03  7796   0.169E-01    0.171E-01
DAV:  11    -0.142002829567E+03    0.24905E-04   -0.20359E-04  7556   0.128E-01    0.122E-01
DAV:  12    -0.142002847083E+03   -0.17516E-04   -0.73988E-05  6864   0.853E-02    0.837E-02
DAV:  13    -0.142002870696E+03   -0.23613E-04   -0.85662E-05  6788   0.603E-02    0.412E-02
DAV:  14    -0.142002870175E+03    0.52186E-06   -0.15218E-05  4504   0.292E-02
  55 F= -.15554691E+03 E0= -.15550622E+03  d E =-.619579E-01
       N       E                     dE             d eps       ncg     rms          rms(c)
DAV:   1    -0.141458226444E+03    0.54464E+00   -0.11629E+01 10384   0.488E+01    0.250E+00
DAV:   2    -0.142017690198E+03   -0.55946E+00   -0.57168E+00  7676   0.560E+00    0.112E+00
DAV:   3    -0.142046370985E+03   -0.28681E-01   -0.22410E-01 11668   0.362E+00    0.120E+00
DAV:   4    -0.142033807932E+03    0.12563E-01   -0.69082E-02  8364   0.325E+00    0.858E-01
DAV:   5    -0.142030250287E+03    0.35576E-02   -0.10952E-02  8360   0.111E+00    0.668E-01
DAV:   6    -0.142030417591E+03   -0.16730E-03   -0.39923E-03  8512   0.288E-01    0.577E-01
DAV:   7    -0.142030461217E+03   -0.43626E-04   -0.45917E-04  7944   0.192E-01    0.404E-01
DAV:   8    -0.142030634021E+03   -0.17280E-03   -0.58325E-04  8652   0.244E-01    0.155E-01
DAV:   9    -0.142030718849E+03   -0.84828E-04   -0.46341E-04 11068   0.174E-01    0.754E-02
DAV:  10    -0.142030735017E+03   -0.16167E-04   -0.12077E-04  7620   0.601E-02    0.539E-02
DAV:  11    -0.142030740672E+03   -0.56555E-05   -0.30395E-05  6256   0.471E-02
  56 F= -.15557260E+03 E0= -.15553212E+03  d E =-.256884E-01
       N       E                     dE             d eps       ncg     rms          rms(c)
DAV:   1    -0.138728046790E+03    0.33027E+01   -0.62291E+01 10152   0.115E+02    0.745E+00
DAV:   2    -0.141984929806E+03   -0.32569E+01   -0.33261E+01  7668   0.145E+01    0.363E+00
DAV:   3    -0.142240156345E+03   -0.25523E+00   -0.19562E+00 11480   0.120E+01    0.391E+00
DAV:   4    -0.142116801553E+03    0.12335E+00   -0.78451E-01  8264   0.110E+01    0.276E+00
DAV:   5    -0.142057961894E+03    0.58840E-01   -0.14406E-01  9276   0.412E+00    0.200E+00
DAV:   6    -0.142061116295E+03   -0.31544E-02   -0.52245E-02  8512   0.883E-01    0.177E+00
DAV:   7    -0.142061000028E+03    0.11627E-03   -0.38709E-03  8800   0.344E-01    0.152E+00
[...]
       N       E                     dE             d eps       ncg     rms          rms(c)
DAV:   1    -0.142110808148E+03    0.34478E-01   -0.74332E-01 10156   0.122E+01    0.572E-01
DAV:   2    -0.142144789680E+03   -0.33982E-01   -0.34831E-01  7564   0.137E+00    0.247E-01
DAV:   3    -0.142145879868E+03   -0.10902E-02   -0.10705E-02  9864   0.565E-01    0.203E-01
DAV:   4    -0.142145750032E+03    0.12984E-03   -0.19732E-03  8604   0.474E-01    0.177E-01
DAV:   5    -0.142145598912E+03    0.15112E-03   -0.38445E-04  8528   0.227E-01    0.142E-01
DAV:   6    -0.142145601642E+03   -0.27294E-05   -0.10207E-04  7780   0.816E-02    0.111E-01
DAV:   7    -0.142145630479E+03   -0.28837E-04   -0.46699E-05  6612   0.749E-02    0.554E-02
DAV:   8    -0.142145645586E+03   -0.15107E-04   -0.56740E-05  8084   0.596E-02    0.183E-02
DAV:   9    -0.142145651689E+03   -0.61032E-05   -0.14307E-05  4980   0.326E-02
  75 F= -.15567812E+03 E0= -.15563737E+03  d E =-.429047E-02
       N       E                     dE             d eps       ncg     rms          rms(c)
DAV:   1    -0.142041994337E+03    0.10365E+00   -0.22818E+00  9920   0.209E+01    0.997E-01
DAV:   2    -0.142143677408E+03   -0.10168E+00   -0.10381E+00  7596   0.238E+00    0.483E-01
DAV:   3    -0.142151080780E+03   -0.74034E-02   -0.48550E-02  9260   0.196E+00    0.602E-01
DAV:   4    -0.142145811256E+03    0.52695E-02   -0.16390E-02  9108   0.156E+00    0.320E-01
DAV:   5    -0.142145632771E+03    0.17849E-03   -0.19256E-03 10592   0.394E-01    0.264E-01
DAV:   6    -0.142145609168E+03    0.23602E-04   -0.61304E-04  8372   0.164E-01    0.214E-01
DAV:   7    -0.142145628416E+03   -0.19247E-04   -0.18121E-04  8172   0.151E-01    0.121E-01
DAV:   8    -0.142145638250E+03   -0.98345E-05   -0.23083E-04  8916   0.140E-01    0.334E-02
DAV:   9    -0.142145647239E+03   -0.89891E-05   -0.95110E-05  8336   0.548E-02
  76 F= -.15567915E+03 E0= -.15563829E+03  d E =-.102644E-02
       N       E                     dE             d eps       ncg     rms          rms(c)
DAV:   1    -0.142140987673E+03    0.46506E-02   -0.11182E-01 10136   0.461E+00    0.212E-01
DAV:   2    -0.142145884054E+03   -0.48964E-02   -0.49880E-02  7536   0.546E-01    0.118E-01
DAV:   3    -0.142146405459E+03   -0.52140E-03   -0.31580E-03  7876   0.559E-01    0.165E-01
DAV:   4    -0.142145947172E+03    0.45829E-03   -0.10482E-03  8152   0.401E-01    0.676E-02
DAV:   5    -0.142145954430E+03   -0.72573E-05   -0.75555E-05  7240   0.729E-02
  77 F= -.15567923E+03 E0= -.15563835E+03  d E =-.110450E-02
       N       E                     dE             d eps       ncg     rms          rms(c)
DAV:   1    -0.142090652476E+03    0.55295E-01   -0.11997E+00 10124   0.153E+01    0.756E-01
DAV:   2    -0.142144737127E+03   -0.54085E-01   -0.55434E-01  7632   0.173E+00    0.299E-01
DAV:   3    -0.142146990619E+03   -0.22535E-02   -0.19314E-02 10132   0.886E-01    0.289E-01
DAV:   4    -0.142146390520E+03    0.60010E-03   -0.40421E-03  8792   0.728E-01    0.213E-01
DAV:   5    -0.142146192335E+03    0.19818E-03   -0.69623E-04  9912   0.284E-01    0.169E-01
DAV:   6    -0.142146191084E+03    0.12512E-05   -0.20787E-04  7980   0.111E-01    0.128E-01
DAV:   7    -0.142146219032E+03   -0.27948E-04   -0.76544E-05  7732   0.939E-02    0.656E-02
DAV:   8    -0.142146225329E+03   -0.62971E-05   -0.88837E-05  7936   0.813E-02
  78 F= -.15568059E+03 E0= -.15563985E+03  d E =-.136382E-02
       N       E                     dE             d eps       ncg     rms          rms(c)
DAV:   1    -0.142028296799E+03    0.11792E+00   -0.25088E+00 10104   0.222E+01    0.106E+00
DAV:   2    -0.142142451790E+03   -0.11415E+00   -0.11673E+00  7564   0.248E+00    0.447E-01
DAV:   3    -0.142145644817E+03   -0.31930E-02   -0.35897E-02 10216   0.701E-01    0.340E-01
DAV:   4    -0.142145940183E+03   -0.29537E-03   -0.39742E-03  8576   0.620E-01    0.336E-01
DAV:   5    -0.142145401304E+03    0.53888E-03   -0.12774E-03  7784   0.443E-01    0.272E-01
DAV:   6    -0.142145362596E+03    0.38709E-04   -0.23315E-04  8796   0.159E-01    0.208E-01
DAV:   7    -0.142145404262E+03   -0.41666E-04   -0.21825E-04  8444   0.155E-01    0.729E-02
DAV:   8    -0.142145403432E+03    0.82926E-06   -0.22688E-04 10228   0.128E-01    0.254E-02
DAV:   9    -0.142145411332E+03   -0.78996E-05   -0.50889E-05  7392   0.314E-02
  79 F= -.15568138E+03 E0= -.15564074E+03  d E =-.215187E-02
       N       E                     dE             d eps       ncg     rms          rms(c)
DAV:   1    -0.142131401437E+03    0.14002E-01   -0.29935E-01 10236   0.773E+00    0.363E-01
DAV:   2    -0.142145191787E+03   -0.13790E-01   -0.14158E-01  7568   0.864E-01    0.164E-01
DAV:   3    -0.142145582508E+03   -0.39072E-03   -0.40148E-03  9708   0.285E-01    0.119E-01
DAV:   4    -0.142145584443E+03   -0.19349E-05   -0.62714E-04  8304   0.263E-01    0.116E-01
DAV:   5    -0.142145510991E+03    0.73453E-04   -0.17348E-04  5580   0.164E-01    0.892E-02
DAV:   6    -0.142145518034E+03   -0.70437E-05   -0.36817E-05  5616   0.610E-02
  80 F= -.15568212E+03 E0= -.15564149E+03  d E =-.737985E-03
       N       E                     dE             d eps       ncg     rms          rms(c)
DAV:   1    -0.142016744669E+03    0.12877E+00   -0.26867E+00 10164   0.232E+01    0.110E+00
DAV:   2    -0.142142153703E+03   -0.12541E+00   -0.12824E+00  7644   0.259E+00    0.501E-01
DAV:   3    -0.142145189381E+03   -0.30357E-02   -0.36492E-02  9852   0.654E-01    0.365E-01
DAV:   4    -0.142145054820E+03    0.13456E-03   -0.19758E-03  8692   0.272E-01    0.323E-01
DAV:   5    -0.142144960544E+03    0.94276E-04   -0.29633E-04  7956   0.210E-01    0.282E-01
DAV:   6    -0.142144924239E+03    0.36305E-04   -0.26232E-04  7216   0.202E-01    0.249E-01
DAV:   7    -0.142144975778E+03   -0.51539E-04   -0.30282E-04 10272   0.227E-01    0.549E-02
DAV:   8    -0.142145010519E+03   -0.34741E-04   -0.23658E-04 10352   0.823E-02    0.301E-02
DAV:   9    -0.142145015794E+03   -0.52752E-05   -0.35912E-05  6592   0.340E-02
  81 F= -.15568351E+03 E0= -.15564295E+03  d E =-.213598E-02
       N       E                     dE             d eps       ncg     rms          rms(c)
DAV:   1    -0.142126080899E+03    0.18930E-01   -0.38811E-01 10100   0.881E+00    0.410E-01
DAV:   2    -0.142143983460E+03   -0.17903E-01   -0.18359E-01  7480   0.987E-01    0.192E-01
DAV:   3    -0.142144558283E+03   -0.57482E-03   -0.55213E-03  9432   0.417E-01    0.154E-01
DAV:   4    -0.142144462291E+03    0.95992E-04   -0.10624E-03  8356   0.364E-01    0.133E-01
DAV:   5    -0.142144385167E+03    0.77124E-04   -0.23834E-04  7736   0.187E-01    0.103E-01
DAV:   6    -0.142144392393E+03   -0.72260E-05   -0.71454E-05  7172   0.715E-02
  82 F= -.15568362E+03 E0= -.15564305E+03  d E =-.223621E-02
       N       E                     dE             d eps       ncg     rms          rms(c)
DAV:   1    -0.142140908772E+03    0.34764E-02   -0.77913E-02 10256   0.394E+00    0.147E-01
DAV:   2    -0.142144484409E+03   -0.35756E-02   -0.35352E-02  7584   0.501E-01    0.133E-01
DAV:   3    -0.142144849563E+03   -0.36515E-03   -0.28952E-03  8180   0.581E-01    0.154E-01
DAV:   4    -0.142144431270E+03    0.41829E-03   -0.92814E-04  8240   0.379E-01    0.727E-02
DAV:   5    -0.142144441823E+03   -0.10553E-04   -0.78401E-05  7624   0.640E-02    0.608E-02
DAV:   6    -0.142144447632E+03   -0.58090E-05   -0.23249E-05  4912   0.313E-02
  83 F= -.15568402E+03 E0= -.15564353E+03  d E =-.400988E-03
       N       E                     dE             d eps       ncg     rms          rms(c)
DAV:   1    -0.142111797944E+03    0.32644E-01   -0.69606E-01 10024   0.117E+01    0.529E-01
DAV:   2    -0.142143392203E+03   -0.31594E-01   -0.32278E-01  7528   0.133E+00    0.284E-01
DAV:   3    -0.142144929051E+03   -0.15368E-02   -0.12208E-02  8032   0.890E-01    0.278E-01
DAV:   4    -0.142144113341E+03    0.81571E-03   -0.36536E-03  8492   0.721E-01    0.185E-01
DAV:   5    -0.142143994439E+03    0.11890E-03   -0.59901E-04 11556   0.249E-01    0.147E-01
DAV:   6    -0.142143997168E+03   -0.27288E-05   -0.15510E-04  7748   0.915E-02    0.116E-01
DAV:   7    -0.142144019391E+03   -0.22223E-04   -0.37870E-05  5412   0.568E-02    0.890E-02
DAV:   8    -0.142144052213E+03   -0.32822E-04   -0.56686E-05  7720   0.715E-02    0.338E-02
DAV:   9    -0.142144064361E+03   -0.12148E-04   -0.28277E-05  5416   0.489E-02    0.128E-02
DAV:  10    -0.142144067950E+03   -0.35890E-05   -0.16107E-05  4744   0.166E-02
  84 F= -.15568467E+03 E0= -.15564433E+03  d E =-.105978E-02
       N       E                     dE             d eps       ncg     rms          rms(c)
DAV:   1    -0.142143882292E+03    0.18207E-03   -0.58131E-03 10284   0.109E+00    0.495E-02
DAV:   2    -0.142144143638E+03   -0.26135E-03   -0.27083E-03  7516   0.123E-01    0.228E-02
DAV:   3    -0.142144152877E+03   -0.92385E-05   -0.80610E-05  5760   0.432E-02    0.172E-02
DAV:   4    -0.142144151825E+03    0.10518E-05   -0.14091E-05  4676   0.430E-02    0.167E-02
DAV:   5    -0.142144150493E+03    0.13315E-05   -0.47919E-06  4276   0.261E-02
  85 F= -.15568480E+03 E0= -.15564447E+03  d E =-.126852E-03
       N       E                     dE             d eps       ncg     rms          rms(c)
DAV:   1    -0.142141938348E+03    0.22135E-02   -0.52277E-02 10324   0.329E+00    0.140E-01
DAV:   2    -0.142144307468E+03   -0.23691E-02   -0.24311E-02  7472   0.368E-01    0.699E-02
DAV:   3    -0.142144366349E+03   -0.58882E-04   -0.69668E-04  8056   0.953E-02    0.476E-02
DAV:   4    -0.142144362006E+03    0.43433E-05   -0.47729E-05  5876   0.467E-02    0.445E-02
DAV:   5    -0.142144358870E+03    0.31360E-05   -0.10946E-05  4384   0.390E-02
  86 F= -.15568514E+03 E0= -.15564482E+03  d E =-.468567E-03
       N       E                     dE             d eps       ncg     rms          rms(c)
DAV:   1    -0.142134915556E+03    0.94464E-02   -0.20886E-01 10324   0.657E+00    0.263E-01
DAV:   2    -0.142144455513E+03   -0.95400E-02   -0.97166E-02  7484   0.732E-01    0.149E-01
DAV:   3    -0.142144664070E+03   -0.20856E-03   -0.27444E-03  8848   0.228E-01    0.110E-01
DAV:   4    -0.142144658948E+03    0.51221E-05   -0.30454E-04  8612   0.179E-01    0.105E-01
DAV:   5    -0.142144619489E+03    0.39460E-04   -0.97439E-05  4992   0.123E-01    0.884E-02
DAV:   6    -0.142144621093E+03   -0.16044E-05   -0.24663E-05  4544   0.502E-02
  87 F= -.15568567E+03 E0= -.15564543E+03  d E =-.999386E-03
       N       E                     dE             d eps       ncg     rms          rms(c)
DAV:   1    -0.142105687193E+03    0.38932E-01   -0.83548E-01 10424   0.132E+01    0.564E-01
DAV:   2    -0.142143828816E+03   -0.38142E-01   -0.38806E-01  7536   0.151E+00    0.311E-01
DAV:   3    -0.142146084582E+03   -0.22558E-02   -0.16645E-02  7996   0.111E+00    0.335E-01
DAV:   4    -0.142144606430E+03    0.14782E-02   -0.49076E-03  8432   0.857E-01    0.200E-01
DAV:   5    -0.142144520090E+03    0.86340E-04   -0.72682E-04 12000   0.249E-01    0.160E-01
DAV:   6    -0.142144507803E+03    0.12288E-04   -0.20162E-04  7380   0.845E-02    0.131E-01
DAV:   7    -0.142144512777E+03   -0.49740E-05   -0.35106E-05  5680   0.487E-02
  88 F= -.15568611E+03 E0= -.15564592E+03  d E =-.143576E-02
       N       E                     dE             d eps       ncg     rms          rms(c)
DAV:   1    -0.142142100797E+03    0.24070E-02   -0.57193E-02 10112   0.332E+00    0.115E-01
DAV:   2    -0.142144551514E+03   -0.24507E-02   -0.24335E-02  7592   0.397E-01    0.107E-01
DAV:   3    -0.142144749905E+03   -0.19839E-03   -0.17490E-03  8196   0.426E-01    0.123E-01
DAV:   4    -0.142144528399E+03    0.22151E-03   -0.54152E-04  7904   0.288E-01    0.646E-02
DAV:   5    -0.142144531349E+03   -0.29498E-05   -0.50368E-05  5940   0.613E-02
  89 F= -.15568636E+03 E0= -.15564617E+03  d E =-.244993E-03
       N       E                     dE             d eps       ncg     rms          rms(c)
DAV:   1    -0.142143733032E+03    0.79537E-03   -0.16649E-02 10288   0.179E+00    0.538E-02
DAV:   2    -0.142144513894E+03   -0.78086E-03   -0.73153E-03  8560   0.268E-01    0.839E-02
DAV:   3    -0.142144505779E+03    0.81146E-05   -0.78575E-04  9540   0.289E-01    0.671E-02
DAV:   4    -0.142144454942E+03    0.50837E-04   -0.14785E-04  5812   0.148E-01    0.438E-02
DAV:   5    -0.142144456457E+03   -0.15148E-05   -0.23966E-05  5176   0.286E-02
  90 F= -.15568640E+03 E0= -.15564621E+03  d E =-.292856E-03
       N       E                     dE             d eps       ncg     rms          rms(c)
DAV:   1    -0.142141326481E+03    0.31285E-02   -0.65661E-02 10108   0.360E+00    0.144E-01
DAV:   2    -0.142144333747E+03   -0.30073E-02   -0.30477E-02  7480   0.410E-01    0.926E-02
DAV:   3    -0.142144492060E+03   -0.15831E-03   -0.12547E-03  7912   0.295E-01    0.916E-02
DAV:   4    -0.142144388512E+03    0.10355E-03   -0.35318E-04  7412   0.225E-01    0.627E-02
DAV:   5    -0.142144381342E+03    0.71698E-05   -0.33888E-05  4772   0.628E-02
  91 F= -.15568666E+03 E0= -.15564646E+03  d E =-.256693E-03
       N       E                     dE             d eps       ncg     rms          rms(c)
DAV:   1    -0.142116401266E+03    0.27987E-01   -0.59000E-01 10472   0.108E+01    0.465E-01
DAV:   2    -0.142143332529E+03   -0.26931E-01   -0.27446E-01  7496   0.120E+00    0.238E-01
DAV:   3    -0.142144059034E+03   -0.72651E-03   -0.82136E-03  9596   0.388E-01    0.176E-01
DAV:   4    -0.142144077920E+03   -0.18886E-04   -0.11534E-03  8500   0.336E-01    0.173E-01
DAV:   5    -0.142143942953E+03    0.13497E-03   -0.26330E-04  7576   0.196E-01    0.144E-01
DAV:   6    -0.142143947663E+03   -0.47106E-05   -0.57445E-05  6644   0.632E-02
  92 F= -.15568723E+03 E0= -.15564710E+03  d E =-.821525E-03
       N       E                     dE             d eps       ncg     rms          rms(c)
DAV:   1    -0.142031399102E+03    0.11254E+00   -0.23541E+00 10304   0.216E+01    0.984E-01
DAV:   2    -0.142139622405E+03   -0.10822E+00   -0.11023E+00  7568   0.243E+00    0.472E-01
DAV:   3    -0.142143762423E+03   -0.41400E-02   -0.37842E-02 11136   0.125E+00    0.430E-01
DAV:   4    -0.142142705859E+03    0.10566E-02   -0.83558E-03  8592   0.103E+00    0.352E-01
DAV:   5    -0.142142229432E+03    0.47643E-03   -0.13826E-03  8376   0.416E-01    0.280E-01
DAV:   6    -0.142142223885E+03    0.55469E-05   -0.46395E-04  8532   0.124E-01    0.219E-01
DAV:   7    -0.142142265004E+03   -0.41119E-04   -0.14448E-04  8016   0.145E-01    0.106E-01
DAV:   8    -0.142142291245E+03   -0.26241E-04   -0.20616E-04  9856   0.122E-01    0.248E-02
DAV:   9    -0.142142302063E+03   -0.10818E-04   -0.65944E-05  7568   0.338E-02    0.243E-02
DAV:  10    -0.142142302752E+03   -0.68886E-06   -0.77855E-06  4468   0.169E-02
  93 F= -.15568759E+03 E0= -.15564762E+03  d E =-.118749E-02
       N       E                     dE             d eps       ncg     rms          rms(c)
DAV:   1    -0.142136144655E+03    0.61574E-02   -0.14996E-01 10084   0.512E+00    0.239E-01
DAV:   2    -0.142142519385E+03   -0.63747E-02   -0.65215E-02  7488   0.592E-01    0.125E-01
DAV:   3    -0.142143031257E+03   -0.51187E-03   -0.34519E-03  7912   0.527E-01    0.160E-01
DAV:   4    -0.142142643589E+03    0.38767E-03   -0.11152E-03  8088   0.403E-01    0.773E-02
DAV:   5    -0.142142645507E+03   -0.19185E-05   -0.11816E-04  7704   0.110E-01    0.656E-02
DAV:   6    -0.142142645196E+03    0.31147E-06   -0.54583E-05  6868   0.547E-02
  94 F= -.15568788E+03 E0= -.15564785E+03  d E =-.286988E-03
       N       E                     dE             d eps       ncg     rms          rms(c)
DAV:   1    -0.142142627158E+03    0.18349E-04   -0.66977E-04 11596   0.358E-01    0.155E-02
DAV:   2    -0.142142690160E+03   -0.63002E-04   -0.31976E-04  9760   0.137E-01    0.446E-02
DAV:   3    -0.142142650516E+03    0.39644E-04   -0.11082E-04  6372   0.117E-01    0.165E-02
DAV:   4    -0.142142654684E+03   -0.41676E-05   -0.17396E-05  4688   0.125E-02    0.156E-02
DAV:   5    -0.142142655010E+03   -0.32579E-06   -0.14235E-06  4496   0.885E-03
  95 F= -.15568788E+03 E0= -.15564788E+03  d E =-.293329E-03
       N       E                     dE             d eps       ncg     rms          rms(c)
DAV:   1    -0.142141374309E+03    0.12804E-02   -0.31989E-02 10344   0.245E+00    0.105E-01
DAV:   2    -0.142142775442E+03   -0.14011E-02   -0.14344E-02  7516   0.280E-01    0.635E-02
DAV:   3    -0.142142847647E+03   -0.72204E-04   -0.63188E-04  7812   0.198E-01    0.617E-02
DAV:   4    -0.142142809045E+03    0.38602E-04   -0.17839E-04  6668   0.156E-01    0.404E-02
DAV:   5    -0.142142804298E+03    0.47464E-05   -0.26412E-05  4404   0.653E-02
  96 F= -.15568805E+03 E0= -.15564804E+03  d E =-.162939E-03
       N       E                     dE             d eps       ncg     rms          rms(c)
DAV:   1    -0.142132195646E+03    0.10613E-01   -0.23892E-01 10048   0.669E+00    0.282E-01
DAV:   2    -0.142142725076E+03   -0.10529E-01   -0.10675E-01  7488   0.769E-01    0.178E-01
DAV:   3    -0.142143589051E+03   -0.86398E-03   -0.60414E-03  7792   0.713E-01    0.211E-01
DAV:   4    -0.142142936625E+03    0.65243E-03   -0.21106E-03  8100   0.558E-01    0.111E-01
DAV:   5    -0.142142905098E+03    0.31527E-04   -0.21294E-04  9524   0.152E-01    0.903E-02
DAV:   6    -0.142142905993E+03   -0.89564E-06   -0.79215E-05  7260   0.567E-02
  97 F= -.15568819E+03 E0= -.15564830E+03  d E =-.305232E-03
       N       E                     dE             d eps       ncg     rms          rms(c)
DAV:   1    -0.142142630993E+03    0.27410E-03   -0.56728E-03 11668   0.106E+00    0.576E-02
DAV:   2    -0.142142916301E+03   -0.28531E-03   -0.26140E-03  9380   0.182E-01    0.531E-02
DAV:   3    -0.142142983538E+03   -0.67237E-04   -0.55528E-04  8752   0.274E-01    0.668E-02
DAV:   4    -0.142142890724E+03    0.92813E-04   -0.18077E-04  5212   0.169E-01    0.217E-02
DAV:   5    -0.142142900943E+03   -0.10219E-04   -0.13618E-05  4464   0.419E-02    0.171E-02
DAV:   6    -0.142142902892E+03   -0.19491E-05   -0.12024E-05  4256   0.338E-02
  98 F= -.15568826E+03 E0= -.15564837E+03  d E =-.746823E-04
       N       E                     dE             d eps       ncg     rms          rms(c)
DAV:   1    -0.142140449160E+03    0.24518E-02   -0.50595E-02 10420   0.316E+00    0.143E-01
DAV:   2    -0.142142729269E+03   -0.22801E-02   -0.23343E-02  7576   0.357E-01    0.696E-02
DAV:   3    -0.142142874930E+03   -0.14566E-03   -0.10123E-03  7948   0.262E-01    0.792E-02
DAV:   4    -0.142142786659E+03    0.88271E-04   -0.29347E-04  7000   0.207E-01    0.455E-02
DAV:   5    -0.142142782429E+03    0.42303E-05   -0.25126E-05  4564   0.532E-02
  99 F= -.15568838E+03 E0= -.15564852E+03  d E =-.187828E-03
       N       E                     dE             d eps       ncg     rms          rms(c)
DAV:   1    -0.142142429877E+03    0.35678E-03   -0.90984E-03  9720   0.115E+00    0.337E-02
DAV:   2    -0.142142800332E+03   -0.37046E-03   -0.34379E-03  8680   0.183E-01    0.607E-02
DAV:   3    -0.142142782102E+03    0.18230E-04   -0.37682E-04  9556   0.190E-01    0.443E-02
DAV:   4    -0.142142767319E+03    0.14783E-04   -0.52317E-05  5196   0.836E-02    0.335E-02
DAV:   5    -0.142142769040E+03   -0.17220E-05   -0.10285E-05  4420   0.201E-02
 100 F= -.15568844E+03 E0= -.15564858E+03  d E =-.632855E-04
       N       E                     dE             d eps       ncg     rms          rms(c)
DAV:   1    -0.142142744593E+03    0.22726E-04   -0.33104E-04 11308   0.230E-01    0.110E-02
DAV:   2    -0.142142762604E+03   -0.18011E-04   -0.13238E-04  8512   0.577E-02    0.218E-02
DAV:   3    -0.142142757496E+03    0.51080E-05   -0.19665E-05  4452   0.469E-02    0.122E-02
DAV:   4    -0.142142757997E+03   -0.50166E-06   -0.51960E-06  4200   0.619E-03    0.125E-02
DAV:   5    -0.142142757689E+03    0.30844E-06   -0.10278E-06  4220   0.729E-03
 101 F= -.15568844E+03 E0= -.15564855E+03  d E =-.666542E-04
