unknown system                          
           1
     7.529542    0.000000    0.000000
     3.764771    6.520775    0.000000
     0.000000    0.000000   26.207423
   Cu   C 
  36   2
Direct configuration=     1
   0.00000000  0.00000000  0.00000000
   0.00000000  0.33333333  0.00000000
   0.00000000  0.66666667  0.00000000
   0.33333333  0.00000000  0.00000000
   0.33333333  0.33333333  0.00000000
   0.33333333  0.66666667  0.00000000
   0.66666667  0.00000000  0.00000000
   0.66666667  0.33333333  0.00000000
   0.66666667  0.66666667  0.00000000
   0.11111111  0.11111111  0.07819471
   0.11111111  0.44444444  0.07819471
   0.11111111  0.77777778  0.07819471
   0.44444444  0.11111111  0.07819471
   0.44444444  0.44444444  0.07819471
   0.44444444  0.77777778  0.07819471
   0.77777778  0.11111111  0.07819471
   0.77777778  0.44444444  0.07819471
   0.77777778  0.77777778  0.07819471
   0.22156672  0.22156672  0.15698183
   0.22219376  0.55556979  0.15663707
   0.22156672  0.89019990  0.15698183
   0.55556979  0.22219376  0.15663707
   0.55556979  0.55556979  0.15663707
   0.55498583  0.88917375  0.15640686
   0.89019990  0.22156672  0.15698183
   0.88917375  0.55498583  0.15640686
   0.88917375  0.88917375  0.15640686
   0.99499124  0.99499124  0.23819225
   0.99499124  0.34335085  0.23819225
   0.99922840  0.66705247  0.23489935
   0.34335085  0.99499124  0.23819225
   0.33432735  0.33432735  0.23600336
   0.33432735  0.66467863  0.23600336
   0.66705247  0.99922840  0.23489935
   0.66467863  0.33432735  0.23600336
   0.66705247  0.66705247  0.23489935
   0.11111111  0.11111111  0.27869515
   0.10951567  0.77557411  0.32810054
Direct configuration=     2
   0.00000000  0.00000000  0.00000000
   0.00000000  0.33333333  0.00000000
   0.00000000  0.66666667  0.00000000
   0.33333333  0.00000000  0.00000000
   0.33333333  0.33333333  0.00000000
   0.33333333  0.66666667  0.00000000
   0.66666667  0.00000000  0.00000000
   0.66666667  0.33333333  0.00000000
   0.66666667  0.66666667  0.00000000
   0.11111111  0.11111111  0.07819471
   0.11111111  0.44444444  0.07819471
   0.11111111  0.77777778  0.07819471
   0.44444444  0.11111111  0.07819471
   0.44444444  0.44444444  0.07819471
   0.44444444  0.77777778  0.07819471
   0.77777778  0.11111111  0.07819471
   0.77777778  0.44444444  0.07819471
   0.77777778  0.77777778  0.07819471
   0.22158433  0.22185578  0.15699759
   0.22212191  0.55542111  0.15656538
   0.22162413  0.88986785  0.15706905
   0.55546837  0.22218612  0.15671566
   0.55533652  0.55570094  0.15669618
   0.55504756  0.88917555  0.15642814
   0.89011784  0.22140583  0.15706976
   0.88949573  0.55516312  0.15648869
   0.88926786  0.88909403  0.15628723
   0.99438543  0.99388179  0.23900629
   0.99476642  0.34312806  0.23812144
   0.00029126  0.66738590  0.23637314
   0.34369487  0.99494184  0.23811942
   0.33446668  0.33466964  0.23619912
   0.33292998  0.66507881  0.23730558
   0.66702699  0.99909146  0.23501906
   0.66466628  0.33449682  0.23597592
   0.66700794  0.66699868  0.23494950
   0.11149476  0.10798676  0.27993500
   0.10969576  0.77913730  0.32315192
Direct configuration=     3
   0.00000000  0.00000000  0.00000000
   0.00000000  0.33333333  0.00000000
   0.00000000  0.66666667  0.00000000
   0.33333333  0.00000000  0.00000000
   0.33333333  0.33333333  0.00000000
   0.33333333  0.66666667  0.00000000
   0.66666667  0.00000000  0.00000000
   0.66666667  0.33333333  0.00000000
   0.66666667  0.66666667  0.00000000
   0.11111111  0.11111111  0.07819471
   0.11111111  0.44444444  0.07819471
   0.11111111  0.77777778  0.07819471
   0.44444444  0.11111111  0.07819471
   0.44444444  0.44444444  0.07819471
   0.44444444  0.77777778  0.07819471
   0.77777778  0.11111111  0.07819471
   0.77777778  0.44444444  0.07819471
   0.77777778  0.77777778  0.07819471
   0.22163716  0.22272296  0.15704485
   0.22190634  0.55497510  0.15635029
   0.22179638  0.88887170  0.15733070
   0.55516413  0.22216317  0.15695140
   0.55463671  0.55609439  0.15687350
   0.55523276  0.88918096  0.15649198
   0.88987165  0.22092318  0.15733354
   0.89046168  0.55569499  0.15673418
   0.88955017  0.88885488  0.15592837
   0.99256797  0.99055342  0.24144841
   0.99409196  0.34245969  0.23790899
   0.00347983  0.66838619  0.24079449
   0.34472696  0.99479364  0.23790091
   0.33488467  0.33569653  0.23678638
   0.32873789  0.66627935  0.24121222
   0.66695057  0.99868062  0.23537819
   0.66462921  0.33500524  0.23589360
   0.66687437  0.66683734  0.23509995
   0.11264570  0.09861370  0.28365456
   0.11023604  0.78982688  0.30830606
Direct configuration=     4
   0.00000000  0.00000000  0.00000000
   0.00000000  0.33333333  0.00000000
   0.00000000  0.66666667  0.00000000
   0.33333333  0.00000000  0.00000000
   0.33333333  0.33333333  0.00000000
   0.33333333  0.66666667  0.00000000
   0.66666667  0.00000000  0.00000000
   0.66666667  0.33333333  0.00000000
   0.66666667  0.66666667  0.00000000
   0.11111111  0.11111111  0.07819471
   0.11111111  0.44444444  0.07819471
   0.11111111  0.77777778  0.07819471
   0.44444444  0.11111111  0.07819471
   0.44444444  0.44444444  0.07819471
   0.44444444  0.77777778  0.07819471
   0.77777778  0.11111111  0.07819471
   0.77777778  0.44444444  0.07819471
   0.77777778  0.77777778  0.07819471
   0.22174283  0.22445732  0.15713938
   0.22147519  0.55408308  0.15592012
   0.22214087  0.88687940  0.15785399
   0.55455566  0.22211729  0.15742289
   0.55323710  0.55688130  0.15722814
   0.55560316  0.88919177  0.15661967
   0.88937928  0.21995787  0.15786110
   0.89239356  0.55675872  0.15722517
   0.89011480  0.88837657  0.15521064
   0.98893306  0.98389668  0.24633263
   0.99274304  0.34112295  0.23748409
   0.00985697  0.67038678  0.24963718
   0.34679112  0.99449724  0.23746391
   0.33572065  0.33775030  0.23796091
   0.32035369  0.66868043  0.24902550
   0.66679774  0.99785896  0.23609645
   0.66455508  0.33602207  0.23572896
   0.66660722  0.66651465  0.23540084
   0.11494758  0.07986758  0.29109367
   0.11131659  0.81120602  0.27861433
Direct configuration=     5
   0.00000000  0.00000000  0.00000000
   0.00000000  0.33333333  0.00000000
   0.00000000  0.66666667  0.00000000
   0.33333333  0.00000000  0.00000000
   0.33333333  0.33333333  0.00000000
   0.33333333  0.66666667  0.00000000
   0.66666667  0.00000000  0.00000000
   0.66666667  0.33333333  0.00000000
   0.66666667  0.66666667  0.00000000
   0.11111111  0.11111111  0.07819471
   0.11111111  0.44444444  0.07819471
   0.11111111  0.77777778  0.07819471
   0.44444444  0.11111111  0.07819471
   0.44444444  0.44444444  0.07819471
   0.44444444  0.77777778  0.07819471
   0.77777778  0.11111111  0.07819471
   0.77777778  0.44444444  0.07819471
   0.77777778  0.77777778  0.07819471
   0.22165196  0.22296577  0.15705808
   0.22184598  0.55485022  0.15629007
   0.22184461  0.88859278  0.15740396
   0.55507895  0.22215675  0.15701741
   0.55444077  0.55620456  0.15692315
   0.55528462  0.88918247  0.15650986
   0.88980272  0.22078803  0.15740740
   0.89073214  0.55584391  0.15680292
   0.88962922  0.88878792  0.15582789
   0.99205908  0.98962147  0.24213220
   0.99390311  0.34227254  0.23784950
   0.00437264  0.66866628  0.24203247
   0.34501594  0.99475215  0.23783973
   0.33500171  0.33598406  0.23695082
   0.32756409  0.66661550  0.24230609
   0.66692918  0.99856559  0.23547875
   0.66461883  0.33514760  0.23587055
   0.66683697  0.66679216  0.23514207
   0.11296797  0.09598922  0.28469604
   0.11038732  0.79281998  0.30414918
Direct configuration=     6
   0.00000000  0.00000000  0.00000000
   0.00000000  0.33333333  0.00000000
   0.00000000  0.66666667  0.00000000
   0.33333333  0.00000000  0.00000000
   0.33333333  0.33333333  0.00000000
   0.33333333  0.66666667  0.00000000
   0.66666667  0.00000000  0.00000000
   0.66666667  0.33333333  0.00000000
   0.66666667  0.66666667  0.00000000
   0.11111111  0.11111111  0.07819471
   0.11111111  0.44444444  0.07819471
   0.11111111  0.77777778  0.07819471
   0.44444444  0.11111111  0.07819471
   0.44444444  0.44444444  0.07819471
   0.44444444  0.77777778  0.07819471
   0.77777778  0.11111111  0.07819471
   0.77777778  0.44444444  0.07819471
   0.77777778  0.77777778  0.07819471
   0.22169740  0.22371155  0.15709873
   0.22166058  0.55446665  0.15610509
   0.22199274  0.88773609  0.15762898
   0.55481730  0.22213702  0.15722015
   0.55383893  0.55654293  0.15707565
   0.55544389  0.88918712  0.15656477
   0.88959100  0.22037295  0.15763425
   0.89156285  0.55630131  0.15701405
   0.88987201  0.88858224  0.15551926
   0.99049607  0.98675907  0.24423242
   0.99332308  0.34169775  0.23766680
   0.00711481  0.66952653  0.24583483
   0.34590353  0.99462469  0.23765182
   0.33536118  0.33686718  0.23745586
   0.32395889  0.66764797  0.24566579
   0.66686346  0.99821227  0.23578760
   0.66458695  0.33558484  0.23579976
   0.66672210  0.66665340  0.23527146
   0.11395777  0.08792840  0.28789485
   0.11085195  0.80201300  0.29138176
Direct configuration=     7
   0.00000000  0.00000000  0.00000000
   0.00000000  0.33333333  0.00000000
   0.00000000  0.66666667  0.00000000
   0.33333333  0.00000000  0.00000000
   0.33333333  0.33333333  0.00000000
   0.33333333  0.66666667  0.00000000
   0.66666667  0.00000000  0.00000000
   0.66666667  0.33333333  0.00000000
   0.66666667  0.66666667  0.00000000
   0.11111111  0.11111111  0.07819471
   0.11111111  0.44444444  0.07819471
   0.11111111  0.77777778  0.07819471
   0.44444444  0.11111111  0.07819471
   0.44444444  0.44444444  0.07819471
   0.44444444  0.77777778  0.07819471
   0.77777778  0.11111111  0.07819471
   0.77777778  0.44444444  0.07819471
   0.77777778  0.77777778  0.07819471
   0.22167348  0.22331908  0.15707734
   0.22175815  0.55466850  0.15620243
   0.22191479  0.88818692  0.15751056
   0.55495499  0.22214740  0.15711346
   0.55415565  0.55636486  0.15699540
   0.55536007  0.88918468  0.15653587
   0.88970241  0.22059139  0.15751487
   0.89112569  0.55606060  0.15690294
   0.88974424  0.88869048  0.15568168
   0.99131861  0.98826541  0.24312718
   0.99362832  0.34200023  0.23776295
   0.00567174  0.66907382  0.24383383
   0.34543644  0.99469177  0.23775071
   0.33517201  0.33640243  0.23719008
   0.32585613  0.66710463  0.24389774
   0.66689804  0.99839821  0.23562507
   0.66460373  0.33535474  0.23583702
   0.66678255  0.66672642  0.23520337
   0.11343689  0.09217042  0.28621147
   0.11060744  0.79717516  0.29810063
Direct configuration=     8
   0.00000000  0.00000000  0.00000000
   0.00000000  0.33333333  0.00000000
   0.00000000  0.66666667  0.00000000
   0.33333333  0.00000000  0.00000000
   0.33333333  0.33333333  0.00000000
   0.33333333  0.66666667  0.00000000
   0.66666667  0.00000000  0.00000000
   0.66666667  0.33333333  0.00000000
   0.66666667  0.66666667  0.00000000
   0.11111111  0.11111111  0.07819471
   0.11111111  0.44444444  0.07819471
   0.11111111  0.77777778  0.07819471
   0.44444444  0.11111111  0.07819471
   0.44444444  0.44444444  0.07819471
   0.44444444  0.77777778  0.07819471
   0.77777778  0.11111111  0.07819471
   0.77777778  0.44444444  0.07819471
   0.77777778  0.77777778  0.07819471
   0.22168332  0.22348045  0.15708613
   0.22171803  0.55458550  0.15616241
   0.22194684  0.88800155  0.15755925
   0.55489838  0.22214313  0.15715733
   0.55402542  0.55643808  0.15702839
   0.55539453  0.88918568  0.15654775
   0.88965660  0.22050157  0.15756395
   0.89130544  0.55615958  0.15694862
   0.88979678  0.88864598  0.15561490
   0.99098040  0.98764605  0.24358163
   0.99350281  0.34187586  0.23772341
   0.00626509  0.66925996  0.24465659
   0.34562850  0.99466419  0.23771005
   0.33524979  0.33659352  0.23729936
   0.32507603  0.66732804  0.24462472
   0.66688382  0.99832175  0.23569190
   0.66459683  0.33544935  0.23582170
   0.66675769  0.66669640  0.23523137
   0.11365106  0.09042621  0.28690364
   0.11070798  0.79916436  0.29533800
Direct configuration=     9
   0.00000000  0.00000000  0.00000000
   0.00000000  0.33333333  0.00000000
   0.00000000  0.66666667  0.00000000
   0.33333333  0.00000000  0.00000000
   0.33333333  0.33333333  0.00000000
   0.33333333  0.66666667  0.00000000
   0.66666667  0.00000000  0.00000000
   0.66666667  0.33333333  0.00000000
   0.66666667  0.66666667  0.00000000
   0.11111111  0.11111111  0.07819471
   0.11111111  0.44444444  0.07819471
   0.11111111  0.77777778  0.07819471
   0.44444444  0.11111111  0.07819471
   0.44444444  0.44444444  0.07819471
   0.44444444  0.77777778  0.07819471
   0.77777778  0.11111111  0.07819471
   0.77777778  0.44444444  0.07819471
   0.77777778  0.77777778  0.07819471
   0.22149125  0.22333830  0.15729078
   0.22146448  0.55526412  0.15667501
   0.22183851  0.88773605  0.15799810
   0.55526875  0.22210870  0.15729490
   0.55350035  0.55668916  0.15727696
   0.55534543  0.88903007  0.15659917
   0.88995356  0.22024881  0.15773392
   0.89151392  0.55631754  0.15736578
   0.89016819  0.88823081  0.15601110
   0.98266097  0.99664214  0.24216615
   0.99647698  0.33671534  0.23845215
   0.00477092  0.66693811  0.24614705
   0.34104527  0.99697344  0.23839011
   0.33551349  0.33556134  0.23724139
   0.32887215  0.66630099  0.24580683
   0.66621612  0.99823451  0.23563352
   0.66443568  0.33585334  0.23576325
   0.66729833  0.66629898  0.23524950
   0.11773754  0.08540784  0.28743197
   0.11417294  0.80255994  0.28997341
Direct configuration=    10
   0.00000000  0.00000000  0.00000000
   0.00000000  0.33333333  0.00000000
   0.00000000  0.66666667  0.00000000
   0.33333333  0.00000000  0.00000000
   0.33333333  0.33333333  0.00000000
   0.33333333  0.66666667  0.00000000
   0.66666667  0.00000000  0.00000000
   0.66666667  0.33333333  0.00000000
   0.66666667  0.66666667  0.00000000
   0.11111111  0.11111111  0.07819471
   0.11111111  0.44444444  0.07819471
   0.11111111  0.77777778  0.07819471
   0.44444444  0.11111111  0.07819471
   0.44444444  0.44444444  0.07819471
   0.44444444  0.77777778  0.07819471
   0.77777778  0.11111111  0.07819471
   0.77777778  0.44444444  0.07819471
   0.77777778  0.77777778  0.07819471
   0.22137023  0.22324872  0.15741972
   0.22130472  0.55569172  0.15699800
   0.22177025  0.88756876  0.15827462
   0.55550212  0.22208701  0.15738159
   0.55316950  0.55684736  0.15743358
   0.55531449  0.88893202  0.15663157
   0.89014068  0.22008954  0.15784101
   0.89164528  0.55641708  0.15762863
   0.89040221  0.88796922  0.15626075
   0.97741892  0.00231055  0.24127426
   0.99835100  0.33346372  0.23891132
   0.00382945  0.66547513  0.24708618
   0.33815739  0.99842849  0.23881862
   0.33567965  0.33491096  0.23720486
   0.33126407  0.66565385  0.24655168
   0.66579540  0.99817954  0.23559673
   0.66433413  0.33610789  0.23572643
   0.66763898  0.66604856  0.23526093
   0.12031243  0.08224578  0.28776487
   0.11635621  0.80469948  0.28659319
Direct configuration=    11
   0.00000000  0.00000000  0.00000000
   0.00000000  0.33333333  0.00000000
   0.00000000  0.66666667  0.00000000
   0.33333333  0.00000000  0.00000000
   0.33333333  0.33333333  0.00000000
   0.33333333  0.66666667  0.00000000
   0.66666667  0.00000000  0.00000000
   0.66666667  0.33333333  0.00000000
   0.66666667  0.66666667  0.00000000
   0.11111111  0.11111111  0.07819471
   0.11111111  0.44444444  0.07819471
   0.11111111  0.77777778  0.07819471
   0.44444444  0.11111111  0.07819471
   0.44444444  0.44444444  0.07819471
   0.44444444  0.77777778  0.07819471
   0.77777778  0.11111111  0.07819471
   0.77777778  0.44444444  0.07819471
   0.77777778  0.77777778  0.07819471
   0.22126069  0.22293782  0.15765332
   0.22110564  0.55655255  0.15778127
   0.22174358  0.88743401  0.15878117
   0.55600502  0.22203602  0.15745253
   0.55268148  0.55707614  0.15769551
   0.55489680  0.88886144  0.15673864
   0.89037864  0.22037058  0.15784115
   0.89187197  0.55604653  0.15821795
   0.89074896  0.88729807  0.15682189
   0.96453273  0.01788367  0.23774139
   0.00175348  0.32797183  0.23999650
   0.00121509  0.66278309  0.24767979
   0.33441927  0.99997572  0.23956821
   0.33591839  0.33341291  0.23691525
   0.34341664  0.65988539  0.24567847
   0.66357695  0.99802661  0.23540325
   0.66320366  0.33742090  0.23566462
   0.66864633  0.66546743  0.23528589
   0.12464740  0.07446758  0.28753147
   0.11789662  0.81027950  0.28567183
Direct configuration=    12
   0.00000000  0.00000000  0.00000000
   0.00000000  0.33333333  0.00000000
   0.00000000  0.66666667  0.00000000
   0.33333333  0.00000000  0.00000000
   0.33333333  0.33333333  0.00000000
   0.33333333  0.66666667  0.00000000
   0.66666667  0.00000000  0.00000000
   0.66666667  0.33333333  0.00000000
   0.66666667  0.66666667  0.00000000
   0.11111111  0.11111111  0.07819471
   0.11111111  0.44444444  0.07819471
   0.11111111  0.77777778  0.07819471
   0.44444444  0.11111111  0.07819471
   0.44444444  0.44444444  0.07819471
   0.44444444  0.77777778  0.07819471
   0.77777778  0.11111111  0.07819471
   0.77777778  0.44444444  0.07819471
   0.77777778  0.77777778  0.07819471
   0.22117819  0.22270364  0.15782927
   0.22095569  0.55720095  0.15837125
   0.22172349  0.88733251  0.15916272
   0.55638381  0.22199761  0.15750596
   0.55231390  0.55724846  0.15789281
   0.55458219  0.88880827  0.15681929
   0.89055788  0.22058227  0.15784126
   0.89204271  0.55576743  0.15866185
   0.89101013  0.88679255  0.15724456
   0.95482651  0.02961375  0.23508033
   0.00431632  0.32383520  0.24081388
  -0.00075411  0.66075538  0.24812692
   0.33160363  0.00114113  0.24013283
   0.33609821  0.33228454  0.23669712
   0.35257027  0.65554043  0.24502075
   0.66190595  0.99791143  0.23525752
   0.66235215  0.33840989  0.23561807
   0.66940509  0.66502970  0.23530470
   0.12791262  0.06860883  0.28735566
   0.11905690  0.81448252  0.28497784
Direct configuration=    13
   0.00000000  0.00000000  0.00000000
   0.00000000  0.33333333  0.00000000
   0.00000000  0.66666667  0.00000000
   0.33333333  0.00000000  0.00000000
   0.33333333  0.33333333  0.00000000
   0.33333333  0.66666667  0.00000000
   0.66666667  0.00000000  0.00000000
   0.66666667  0.33333333  0.00000000
   0.66666667  0.66666667  0.00000000
   0.11111111  0.11111111  0.07819471
   0.11111111  0.44444444  0.07819471
   0.11111111  0.77777778  0.07819471
   0.44444444  0.11111111  0.07819471
   0.44444444  0.44444444  0.07819471
   0.44444444  0.77777778  0.07819471
   0.77777778  0.11111111  0.07819471
   0.77777778  0.44444444  0.07819471
   0.77777778  0.77777778  0.07819471
   0.22119938  0.22249679  0.15796947
   0.22076309  0.55774645  0.15900473
   0.22178505  0.88727149  0.15950161
   0.55674882  0.22187821  0.15747507
   0.55211565  0.55739881  0.15798427
   0.55403742  0.88884878  0.15690309
   0.89033680  0.22192267  0.15740043
   0.89247423  0.55508543  0.15917191
   0.89106298  0.88591813  0.15754683
   0.94955097  0.03620607  0.23280007
   0.00631590  0.32122672  0.24181349
  -0.00157167  0.66047203  0.24839655
   0.33209736  0.00037005  0.24025913
   0.33608883  0.33136347  0.23640987
   0.35911954  0.65274281  0.24414393
   0.65925870  0.99752183  0.23512744
   0.65991298  0.34094588  0.23557422
   0.67096679  0.66440507  0.23536749
   0.12837756  0.05617586  0.28717546
   0.11961927  0.82585115  0.28438957
Direct configuration=    14
   0.00000000  0.00000000  0.00000000
   0.00000000  0.33333333  0.00000000
   0.00000000  0.66666667  0.00000000
   0.33333333  0.00000000  0.00000000
   0.33333333  0.33333333  0.00000000
   0.33333333  0.66666667  0.00000000
   0.66666667  0.00000000  0.00000000
   0.66666667  0.33333333  0.00000000
   0.66666667  0.66666667  0.00000000
   0.11111111  0.11111111  0.07819471
   0.11111111  0.44444444  0.07819471
   0.11111111  0.77777778  0.07819471
   0.44444444  0.11111111  0.07819471
   0.44444444  0.44444444  0.07819471
   0.44444444  0.77777778  0.07819471
   0.77777778  0.11111111  0.07819471
   0.77777778  0.44444444  0.07819471
   0.77777778  0.77777778  0.07819471
   0.22126296  0.22187626  0.15839006
   0.22018526  0.55938295  0.16090516
   0.22196975  0.88708842  0.16051828
   0.55784386  0.22152000  0.15738238
   0.55152089  0.55784986  0.15825866
   0.55240310  0.88897028  0.15715448
   0.88967356  0.22594387  0.15607794
   0.89376878  0.55303943  0.16070210
   0.89122153  0.88329486  0.15845367
   0.93372435  0.05598301  0.22595927
   0.01231465  0.31340127  0.24481230
  -0.00402437  0.65962200  0.24920546
   0.33357856 -0.00194318  0.24063804
   0.33606068  0.32860026  0.23554815
   0.37876734  0.64434995  0.24151347
   0.65131693  0.99635305  0.23473717
   0.65259545  0.34855384  0.23544267
   0.67565190  0.66253120  0.23555588
   0.12977237  0.01887694  0.28663486
   0.12130637  0.85995706  0.28262478
Direct configuration=    15
   0.00000000  0.00000000  0.00000000
   0.00000000  0.33333333  0.00000000
   0.00000000  0.66666667  0.00000000
   0.33333333  0.00000000  0.00000000
   0.33333333  0.33333333  0.00000000
   0.33333333  0.66666667  0.00000000
   0.66666667  0.00000000  0.00000000
   0.66666667  0.33333333  0.00000000
   0.66666667  0.66666667  0.00000000
   0.11111111  0.11111111  0.07819471
   0.11111111  0.44444444  0.07819471
   0.11111111  0.77777778  0.07819471
   0.44444444  0.11111111  0.07819471
   0.44444444  0.44444444  0.07819471
   0.44444444  0.77777778  0.07819471
   0.77777778  0.11111111  0.07819471
   0.77777778  0.44444444  0.07819471
   0.77777778  0.77777778  0.07819471
   0.22122113  0.22228446  0.15811339
   0.22056536  0.55830643  0.15965503
   0.22184825  0.88720885  0.15984950
   0.55712353  0.22175564  0.15744335
   0.55191213  0.55755315  0.15807816
   0.55347818  0.88889035  0.15698911
   0.89010985  0.22329866  0.15694789
   0.89291720  0.55438532  0.15969552
   0.89111724  0.88502049  0.15785714
   0.94413536  0.04297341  0.23045926
   0.00836857  0.31854898  0.24283963
  -0.00241094  0.66018116  0.24867335
   0.33260420 -0.00042150  0.24038879
   0.33607919  0.33041794  0.23611501
   0.36584269  0.64987091  0.24324383
   0.65654115  0.99712189  0.23499389
   0.65740904  0.34354920  0.23552921
   0.67256996  0.66376386  0.23543196
   0.12885484  0.04341278  0.28699048
   0.12019657  0.83752164  0.28378569
Direct configuration=    16
   0.00000000  0.00000000  0.00000000
   0.00000000  0.33333333  0.00000000
   0.00000000  0.66666667  0.00000000
   0.33333333  0.00000000  0.00000000
   0.33333333  0.33333333  0.00000000
   0.33333333  0.66666667  0.00000000
   0.66666667  0.00000000  0.00000000
   0.66666667  0.33333333  0.00000000
   0.66666667  0.66666667  0.00000000
   0.11111111  0.11111111  0.07819471
   0.11111111  0.44444444  0.07819471
   0.11111111  0.77777778  0.07819471
   0.44444444  0.11111111  0.07819471
   0.44444444  0.44444444  0.07819471
   0.44444444  0.77777778  0.07819471
   0.77777778  0.11111111  0.07819471
   0.77777778  0.44444444  0.07819471
   0.77777778  0.77777778  0.07819471
   0.22124204  0.22208036  0.15825173
   0.22037531  0.55884469  0.16028009
   0.22190900  0.88714864  0.16018389
   0.55748369  0.22163782  0.15741287
   0.55171651  0.55770151  0.15816841
   0.55294064  0.88893032  0.15707179
   0.88989170  0.22462127  0.15651291
   0.89334299  0.55371238  0.16019881
   0.89116939  0.88415767  0.15815541
   0.93892986  0.04947821  0.22820926
   0.01034161  0.31597512  0.24382597
  -0.00321766  0.65990158  0.24893940
   0.33309138 -0.00118234  0.24051341
   0.33606993  0.32950910  0.23583158
   0.37230502  0.64711043  0.24237865
   0.65392904  0.99673747  0.23486553
   0.65500224  0.34605152  0.23548594
   0.67411093  0.66314753  0.23549392
   0.12931361  0.03114486  0.28681267
   0.12075147  0.84873935  0.28320524
Direct configuration=    17
   0.00000000  0.00000000  0.00000000
   0.00000000  0.33333333  0.00000000
   0.00000000  0.66666667  0.00000000
   0.33333333  0.00000000  0.00000000
   0.33333333  0.33333333  0.00000000
   0.33333333  0.66666667  0.00000000
   0.66666667  0.00000000  0.00000000
   0.66666667  0.33333333  0.00000000
   0.66666667  0.66666667  0.00000000
   0.11111111  0.11111111  0.07819471
   0.11111111  0.44444444  0.07819471
   0.11111111  0.77777778  0.07819471
   0.44444444  0.11111111  0.07819471
   0.44444444  0.44444444  0.07819471
   0.44444444  0.77777778  0.07819471
   0.77777778  0.11111111  0.07819471
   0.77777778  0.44444444  0.07819471
   0.77777778  0.77777778  0.07819471
   0.22125250  0.22197831  0.15832090
   0.22028029  0.55911382  0.16059262
   0.22193938  0.88711853  0.16035108
   0.55766378  0.22157891  0.15739763
   0.55161870  0.55777569  0.15821353
   0.55267187  0.88895030  0.15711314
   0.88978263  0.22528257  0.15629542
   0.89355588  0.55337591  0.16045045
   0.89119546  0.88372626  0.15830454
   0.93632710  0.05273061  0.22708426
   0.01132813  0.31468819  0.24431913
  -0.00362101  0.65976179  0.24907243
   0.33333497 -0.00156276  0.24057572
   0.33606531  0.32905468  0.23568986
   0.37553618  0.64573019  0.24194606
   0.65262299  0.99654526  0.23480135
   0.65379885  0.34730268  0.23546431
   0.67488141  0.66283936  0.23552490
   0.12954299  0.02501090  0.28672377
   0.12102892  0.85434820  0.28291501
Direct configuration=    18
   0.00000000  0.00000000  0.00000000
   0.00000000  0.33333333  0.00000000
   0.00000000  0.66666667  0.00000000
   0.33333333  0.00000000  0.00000000
   0.33333333  0.33333333  0.00000000
   0.33333333  0.66666667  0.00000000
   0.66666667  0.00000000  0.00000000
   0.66666667  0.33333333  0.00000000
   0.66666667  0.66666667  0.00000000
   0.11111111  0.11111111  0.07819471
   0.11111111  0.44444444  0.07819471
   0.11111111  0.77777778  0.07819471
   0.44444444  0.11111111  0.07819471
   0.44444444  0.44444444  0.07819471
   0.44444444  0.77777778  0.07819471
   0.77777778  0.11111111  0.07819471
   0.77777778  0.44444444  0.07819471
   0.77777778  0.77777778  0.07819471
   0.22124853  0.22201708  0.15829462
   0.22031639  0.55901158  0.16047390
   0.22192784  0.88712997  0.16028757
   0.55759537  0.22160129  0.15740342
   0.55165586  0.55774751  0.15819639
   0.55277398  0.88894271  0.15709743
   0.88982406  0.22503135  0.15637805
   0.89347501  0.55350373  0.16035486
   0.89118555  0.88389015  0.15824789
   0.93731585  0.05149507  0.22751163
   0.01095336  0.31517708  0.24413179
  -0.00346778  0.65981489  0.24902190
   0.33324243 -0.00141824  0.24055205
   0.33606706  0.32922731  0.23574370
   0.37430870  0.64625453  0.24211040
   0.65311914  0.99661828  0.23482573
   0.65425600  0.34682738  0.23547252
   0.67458871  0.66295643  0.23551313
   0.12945585  0.02734111  0.28675754
   0.12092352  0.85221747  0.28302526
Direct configuration=    19
   0.00000000  0.00000000  0.00000000
   0.00000000  0.33333333  0.00000000
   0.00000000  0.66666667  0.00000000
   0.33333333  0.00000000  0.00000000
   0.33333333  0.33333333  0.00000000
   0.33333333  0.66666667  0.00000000
   0.66666667  0.00000000  0.00000000
   0.66666667  0.33333333  0.00000000
   0.66666667  0.66666667  0.00000000
   0.11111111  0.11111111  0.07819471
   0.11111111  0.44444444  0.07819471
   0.11111111  0.77777778  0.07819471
   0.44444444  0.11111111  0.07819471
   0.44444444  0.44444444  0.07819471
   0.44444444  0.77777778  0.07819471
   0.77777778  0.11111111  0.07819471
   0.77777778  0.44444444  0.07819471
   0.77777778  0.77777778  0.07819471
   0.22130541  0.22195302  0.15823649
   0.22004100  0.55911321  0.16067063
   0.22192956  0.88722386  0.16009384
   0.55783417  0.22129787  0.15722838
   0.55209011  0.55783635  0.15776429
   0.55231253  0.88894841  0.15705735
   0.88834629  0.22939707  0.15450584
   0.89459171  0.55253018  0.16064693
   0.89048951  0.88241650  0.15771650
   0.94113778  0.04435618  0.22727468
   0.01097877  0.31690058  0.24508170
  -0.00110868  0.66269348  0.24900521
   0.33775404 -0.00364052  0.23999445
   0.33524021  0.32963934  0.23565038
   0.36639052  0.65212347  0.24189139
   0.65200746  0.99644693  0.23484510
   0.65304658  0.34751826  0.23547883
   0.67813413  0.66190894  0.23570821
   0.12621842  0.01115398  0.28680927
   0.12222182  0.86536326  0.28287387
Direct configuration=    20
   0.00000000  0.00000000  0.00000000
   0.00000000  0.33333333  0.00000000
   0.00000000  0.66666667  0.00000000
   0.33333333  0.00000000  0.00000000
   0.33333333  0.33333333  0.00000000
   0.33333333  0.66666667  0.00000000
   0.66666667  0.00000000  0.00000000
   0.66666667  0.33333333  0.00000000
   0.66666667  0.66666667  0.00000000
   0.11111111  0.11111111  0.07819471
   0.11111111  0.44444444  0.07819471
   0.11111111  0.77777778  0.07819471
   0.44444444  0.11111111  0.07819471
   0.44444444  0.44444444  0.07819471
   0.44444444  0.77777778  0.07819471
   0.77777778  0.11111111  0.07819471
   0.77777778  0.44444444  0.07819471
   0.77777778  0.77777778  0.07819471
   0.22126696  0.22199633  0.15827579
   0.22022716  0.55904451  0.16053764
   0.22192840  0.88716039  0.16022480
   0.55767274  0.22150299  0.15734671
   0.55179655  0.55777629  0.15805640
   0.55262447  0.88894456  0.15708445
   0.88934528  0.22644579  0.15577147
   0.89383681  0.55318831  0.16044948
   0.89096004  0.88341270  0.15807572
   0.93855411  0.04918215  0.22743486
   0.01096159  0.31573547  0.24443955
  -0.00270346  0.66074752  0.24901649
   0.33470414 -0.00213824  0.24037140
   0.33579917  0.32936080  0.23571346
   0.37174330  0.64815600  0.24203944
   0.65275897  0.99656276  0.23483201
   0.65386416  0.34705122  0.23547457
   0.67573739  0.66261706  0.23557633
   0.12840696  0.02209667  0.28677430
   0.12134415  0.85647655  0.28297621
Direct configuration=    21
   0.00000000  0.00000000  0.00000000
   0.00000000  0.33333333  0.00000000
   0.00000000  0.66666667  0.00000000
   0.33333333  0.00000000  0.00000000
   0.33333333  0.33333333  0.00000000
   0.33333333  0.66666667  0.00000000
   0.66666667  0.00000000  0.00000000
   0.66666667  0.33333333  0.00000000
   0.66666667  0.66666667  0.00000000