  17  17   1   0
  0.3364036E+02  0.5019695E-09  0.5019695E-09  0.2620742E-08  0.5000000E-15
  1.000000000000000E-004
  CAR 
 unknown system                          
     12.30624707    -75.91416376  301     -1.03444153      1.00000000
    -75.914  0.0000E+00  0.0000E+00
    -75.620  0.0000E+00  0.0000E+00
    -75.326  0.0000E+00  0.0000E+00
    -75.032  0.0000E+00  0.0000E+00
    -74.738  0.0000E+00  0.0000E+00
    -74.444  0.0000E+00  0.0000E+00
    -74.150  0.0000E+00  0.0000E+00
    -73.856  0.0000E+00  0.0000E+00
    -73.562  0.0000E+00  0.0000E+00
    -73.268  0.0000E+00  0.0000E+00
    -72.973  0.0000E+00  0.0000E+00
    -72.679  0.0000E+00  0.0000E+00
    -72.385  0.7645E-13  0.2248E-13
    -72.091  0.1386E-03  0.4075E-04
    -71.797  0.1108E+00  0.3264E-01
    -71.503  0.1859E+00  0.8729E-01
    -71.209  0.3031E+00  0.1764E+00
    -70.915  0.1063E+01  0.4889E+00
    -70.621  0.4641E+00  0.6254E+00
    -70.327  0.4961E-01  0.6400E+00
    -70.033  0.1257E-04  0.6400E+00
    -69.739  0.0000E+00  0.6400E+00
    -69.445  0.0000E+00  0.6400E+00
    -69.151  0.0000E+00  0.6400E+00
    -68.857  0.0000E+00  0.6400E+00
    -68.562  0.0000E+00  0.6400E+00
    -68.268  0.0000E+00  0.6400E+00
    -67.974  0.0000E+00  0.6400E+00
    -67.680  0.0000E+00  0.6400E+00
    -67.386  0.0000E+00  0.6400E+00
    -67.092  0.0000E+00  0.6400E+00
    -66.798  0.0000E+00  0.6400E+00
    -66.504  0.0000E+00  0.6400E+00
    -66.210  0.0000E+00  0.6400E+00
    -65.916  0.0000E+00  0.6400E+00
    -65.622  0.0000E+00  0.6400E+00
    -65.328  0.0000E+00  0.6400E+00
    -65.034  0.0000E+00  0.6400E+00
    -64.740  0.0000E+00  0.6400E+00
    -64.446  0.0000E+00  0.6400E+00
    -64.151  0.0000E+00  0.6400E+00
    -63.857  0.0000E+00  0.6400E+00
    -63.563  0.0000E+00  0.6400E+00
    -63.269  0.0000E+00  0.6400E+00
    -62.975  0.0000E+00  0.6400E+00
    -62.681  0.0000E+00  0.6400E+00
    -62.387  0.0000E+00  0.6400E+00
    -62.093  0.0000E+00  0.6400E+00
    -61.799  0.0000E+00  0.6400E+00
    -61.505  0.0000E+00  0.6400E+00
    -61.211  0.0000E+00  0.6400E+00
    -60.917  0.0000E+00  0.6400E+00
    -60.623  0.0000E+00  0.6400E+00
    -60.329  0.0000E+00  0.6400E+00
    -60.034  0.0000E+00  0.6400E+00
    -59.740  0.0000E+00  0.6400E+00
    -59.446  0.0000E+00  0.6400E+00
    -59.152  0.0000E+00  0.6400E+00
    -58.858  0.0000E+00  0.6400E+00
    -58.564  0.0000E+00  0.6400E+00
    -58.270  0.0000E+00  0.6400E+00
    -57.976  0.0000E+00  0.6400E+00
    -57.682  0.0000E+00  0.6400E+00
    -57.388  0.0000E+00  0.6400E+00
    -57.094  0.0000E+00  0.6400E+00
    -56.800  0.0000E+00  0.6400E+00
    -56.506  0.0000E+00  0.6400E+00
    -56.212  0.0000E+00  0.6400E+00
    -55.918  0.0000E+00  0.6400E+00
    -55.623  0.0000E+00  0.6400E+00
    -55.329  0.0000E+00  0.6400E+00
    -55.035  0.0000E+00  0.6400E+00
    -54.741  0.0000E+00  0.6400E+00
    -54.447  0.0000E+00  0.6400E+00
    -54.153  0.0000E+00  0.6400E+00
    -53.859  0.0000E+00  0.6400E+00
    -53.565  0.0000E+00  0.6400E+00
    -53.271  0.0000E+00  0.6400E+00
    -52.977  0.0000E+00  0.6400E+00
    -52.683  0.0000E+00  0.6400E+00
    -52.389  0.0000E+00  0.6400E+00
    -52.095  0.0000E+00  0.6400E+00
    -51.801  0.0000E+00  0.6400E+00
    -51.507  0.0000E+00  0.6400E+00
    -51.212  0.0000E+00  0.6400E+00
    -50.918  0.0000E+00  0.6400E+00
    -50.624  0.0000E+00  0.6400E+00
    -50.330  0.0000E+00  0.6400E+00
    -50.036  0.0000E+00  0.6400E+00
    -49.742  0.0000E+00  0.6400E+00
    -49.448  0.0000E+00  0.6400E+00
    -49.154  0.0000E+00  0.6400E+00
    -48.860  0.0000E+00  0.6400E+00
    -48.566  0.0000E+00  0.6400E+00
    -48.272  0.0000E+00  0.6400E+00
    -47.978  0.0000E+00  0.6400E+00
    -47.684  0.0000E+00  0.6400E+00
    -47.390  0.0000E+00  0.6400E+00
    -47.095  0.0000E+00  0.6400E+00
    -46.801  0.0000E+00  0.6400E+00
    -46.507  0.0000E+00  0.6400E+00
    -46.213  0.0000E+00  0.6400E+00
    -45.919  0.0000E+00  0.6400E+00
    -45.625  0.0000E+00  0.6400E+00
    -45.331  0.0000E+00  0.6400E+00
    -45.037  0.0000E+00  0.6400E+00
    -44.743  0.0000E+00  0.6400E+00
    -44.449  0.0000E+00  0.6400E+00
    -44.155  0.0000E+00  0.6400E+00
    -43.861  0.0000E+00  0.6400E+00
    -43.567  0.0000E+00  0.6400E+00
    -43.273  0.0000E+00  0.6400E+00
    -42.979  0.0000E+00  0.6400E+00
    -42.684  0.0000E+00  0.6400E+00
    -42.390  0.0000E+00  0.6400E+00
    -42.096  0.0000E+00  0.6400E+00
    -41.802  0.0000E+00  0.6400E+00
    -41.508  0.0000E+00  0.6400E+00
    -41.214  0.0000E+00  0.6400E+00
    -40.920  0.0000E+00  0.6400E+00
    -40.626  0.0000E+00  0.6400E+00
    -40.332  0.0000E+00  0.6400E+00
    -40.038  0.0000E+00  0.6400E+00
    -39.744  0.0000E+00  0.6400E+00
    -39.450  0.0000E+00  0.6400E+00
    -39.156  0.0000E+00  0.6400E+00
    -38.862  0.0000E+00  0.6400E+00
    -38.568  0.0000E+00  0.6400E+00
    -38.273  0.0000E+00  0.6400E+00
    -37.979  0.0000E+00  0.6400E+00
    -37.685  0.0000E+00  0.6400E+00
    -37.391  0.0000E+00  0.6400E+00
    -37.097  0.0000E+00  0.6400E+00
    -36.803  0.0000E+00  0.6400E+00
    -36.509  0.0000E+00  0.6400E+00
    -36.215  0.0000E+00  0.6400E+00
    -35.921  0.0000E+00  0.6400E+00
    -35.627  0.0000E+00  0.6400E+00
    -35.333  0.0000E+00  0.6400E+00
    -35.039  0.0000E+00  0.6400E+00
    -34.745  0.0000E+00  0.6400E+00
    -34.451  0.0000E+00  0.6400E+00
    -34.157  0.0000E+00  0.6400E+00
    -33.862  0.0000E+00  0.6400E+00
    -33.568  0.0000E+00  0.6400E+00
    -33.274  0.0000E+00  0.6400E+00
    -32.980  0.0000E+00  0.6400E+00
    -32.686  0.0000E+00  0.6400E+00
    -32.392  0.0000E+00  0.6400E+00
    -32.098  0.0000E+00  0.6400E+00
    -31.804  0.0000E+00  0.6400E+00
    -31.510  0.0000E+00  0.6400E+00
    -31.216  0.0000E+00  0.6400E+00
    -30.922  0.0000E+00  0.6400E+00
    -30.628  0.0000E+00  0.6400E+00
    -30.334  0.0000E+00  0.6400E+00
    -30.040  0.0000E+00  0.6400E+00
    -29.745  0.0000E+00  0.6400E+00
    -29.451  0.0000E+00  0.6400E+00
    -29.157  0.0000E+00  0.6400E+00
    -28.863  0.0000E+00  0.6400E+00
    -28.569  0.0000E+00  0.6400E+00
    -28.275  0.0000E+00  0.6400E+00
    -27.981  0.0000E+00  0.6400E+00
    -27.687  0.0000E+00  0.6400E+00
    -27.393  0.0000E+00  0.6400E+00
    -27.099  0.0000E+00  0.6400E+00
    -26.805  0.0000E+00  0.6400E+00
    -26.511  0.0000E+00  0.6400E+00
    -26.217  0.0000E+00  0.6400E+00
    -25.923  0.0000E+00  0.6400E+00
    -25.629  0.0000E+00  0.6400E+00
    -25.334  0.0000E+00  0.6400E+00
    -25.040  0.0000E+00  0.6400E+00
    -24.746  0.0000E+00  0.6400E+00
    -24.452  0.0000E+00  0.6400E+00
    -24.158  0.0000E+00  0.6400E+00
    -23.864  0.0000E+00  0.6400E+00
    -23.570  0.0000E+00  0.6400E+00
    -23.276  0.0000E+00  0.6400E+00
    -22.982  0.0000E+00  0.6400E+00
    -22.688  0.0000E+00  0.6400E+00
    -22.394  0.0000E+00  0.6400E+00
    -22.100  0.0000E+00  0.6400E+00
    -21.806  0.0000E+00  0.6400E+00
    -21.512  0.0000E+00  0.6400E+00
    -21.218  0.0000E+00  0.6400E+00
    -20.923  0.0000E+00  0.6400E+00
    -20.629  0.0000E+00  0.6400E+00
    -20.335  0.0000E+00  0.6400E+00
    -20.041  0.0000E+00  0.6400E+00
    -19.747  0.0000E+00  0.6400E+00
    -19.453  0.0000E+00  0.6400E+00
    -19.159  0.0000E+00  0.6400E+00
    -18.865  0.0000E+00  0.6400E+00
    -18.571  0.0000E+00  0.6400E+00
    -18.277  0.0000E+00  0.6400E+00
    -17.983  0.0000E+00  0.6400E+00
    -17.689  0.0000E+00  0.6400E+00
    -17.395  0.0000E+00  0.6400E+00
    -17.101  0.0000E+00  0.6400E+00
    -16.806  0.0000E+00  0.6400E+00
    -16.512  0.0000E+00  0.6400E+00
    -16.218  0.0000E+00  0.6400E+00
    -15.924  0.0000E+00  0.6400E+00
    -15.630  0.0000E+00  0.6400E+00
    -15.336  0.0000E+00  0.6400E+00
    -15.042  0.0000E+00  0.6400E+00
    -14.748  0.0000E+00  0.6400E+00
    -14.454  0.0000E+00  0.6400E+00
    -14.160  0.0000E+00  0.6400E+00
    -13.866  0.0000E+00  0.6400E+00
    -13.572  0.0000E+00  0.6400E+00
    -13.278  0.0000E+00  0.6400E+00
    -12.984  0.2349E-16  0.6400E+00
    -12.690  0.4608E-06  0.6400E+00
    -12.395  0.4765E-02  0.6414E+00
    -12.101  0.3698E-01  0.6523E+00
    -11.807  0.3592E-02  0.6533E+00
    -11.513  0.4218E-08  0.6533E+00
    -11.219  0.0000E+00  0.6533E+00
    -10.925  0.0000E+00  0.6533E+00
    -10.631  0.3545E-10  0.6533E+00
    -10.337  0.1282E-03  0.6534E+00
    -10.043  0.4407E-02  0.6547E+00
     -9.749  0.4449E-02  0.6560E+00
     -9.455  0.8923E-02  0.6586E+00
     -9.161  0.6020E-02  0.6604E+00
     -8.867  0.2467E-02  0.6611E+00
     -8.573  0.1682E-01  0.6660E+00
     -8.279  0.1286E-01  0.6698E+00
     -7.984  0.1432E-01  0.6740E+00
     -7.690  0.2044E-01  0.6800E+00
     -7.396  0.2110E-01  0.6862E+00
     -7.102  0.1163E-01  0.6897E+00
     -6.808  0.3492E-01  0.6999E+00
     -6.514  0.4703E-01  0.7138E+00
     -6.220  0.7327E-01  0.7353E+00
     -5.926  0.1193E+00  0.7704E+00
     -5.632  0.1309E+00  0.8089E+00
     -5.338  0.2084E+00  0.8702E+00
     -5.044  0.2209E+00  0.9351E+00
     -4.750  0.2243E+00  0.1001E+01
     -4.456  0.2691E+00  0.1080E+01
     -4.162  0.3201E+00  0.1174E+01
     -3.867  0.4007E+00  0.1292E+01
     -3.573  0.3214E+00  0.1387E+01
     -3.279  0.3405E+00  0.1487E+01
     -2.985  0.3637E+00  0.1594E+01
     -2.691  0.4482E+00  0.1726E+01
     -2.397  0.1761E+00  0.1777E+01
     -2.103  0.6127E-01  0.1795E+01
     -1.809  0.4298E-01  0.1808E+01
     -1.515  0.4137E-01  0.1820E+01
     -1.221  0.4405E-01  0.1833E+01
     -0.927  0.4914E-01  0.1848E+01
     -0.633  0.4224E-01  0.1860E+01
     -0.339  0.9478E-02  0.1863E+01
     -0.045  0.4562E-01  0.1876E+01
      0.249  0.4005E-01  0.1888E+01
      0.544  0.3169E-01  0.1897E+01
      0.838  0.2557E-01  0.1905E+01
      1.132  0.4859E-01  0.1919E+01
      1.426  0.2772E-01  0.1927E+01
      1.720  0.1762E-01  0.1932E+01
      2.014  0.4874E-01  0.1947E+01
      2.308  0.2034E-01  0.1953E+01
      2.602  0.1664E-01  0.1958E+01
      2.896  0.2597E-01  0.1965E+01
      3.190  0.3160E-01  0.1975E+01
      3.484  0.3607E-01  0.1985E+01
      3.778  0.2425E-01  0.1992E+01
      4.072  0.2210E-01  0.1999E+01
      4.366  0.4495E-01  0.2012E+01
      4.660  0.4535E-01  0.2025E+01
      4.955  0.6233E-01  0.2044E+01
      5.249  0.3659E-01  0.2054E+01
      5.543  0.8171E-01  0.2078E+01
      5.837  0.3518E-01  0.2089E+01
      6.131  0.6533E-01  0.2108E+01
      6.425  0.6112E-01  0.2126E+01
      6.719  0.6158E-01  0.2144E+01
      7.013  0.6643E-01  0.2164E+01
      7.307  0.4787E-01  0.2178E+01
      7.601  0.7447E-01  0.2200E+01
      7.895  0.6321E-01  0.2218E+01
      8.189  0.5663E-01  0.2235E+01
      8.483  0.1734E-01  0.2240E+01
      8.777  0.2797E-04  0.2240E+01
      9.071  0.3038E-13  0.2240E+01
      9.366  0.0000E+00  0.2240E+01
      9.660  0.0000E+00  0.2240E+01
      9.954  0.0000E+00  0.2240E+01
     10.248  0.0000E+00  0.2240E+01
     10.542  0.0000E+00  0.2240E+01
     10.836  0.0000E+00  0.2240E+01
     11.130  0.0000E+00  0.2240E+01
     11.424  0.0000E+00  0.2240E+01
     11.718  0.0000E+00  0.2240E+01
     12.012  0.0000E+00  0.2240E+01
     12.306  0.0000E+00  0.2240E+01
     12.30624707    -75.91416376  301     -1.03444153      1.00000000
    -75.914  0.0000E+00  0.0000E+00  0.0000E+00
    -75.620  0.0000E+00  0.0000E+00  0.0000E+00
    -75.326  0.0000E+00  0.0000E+00  0.0000E+00
    -75.032  0.0000E+00  0.0000E+00  0.0000E+00
    -74.738  0.0000E+00  0.0000E+00  0.0000E+00
    -74.444  0.0000E+00  0.0000E+00  0.0000E+00
    -74.150  0.0000E+00  0.0000E+00  0.0000E+00
    -73.856  0.0000E+00  0.0000E+00  0.0000E+00
    -73.562  0.0000E+00  0.0000E+00  0.0000E+00
    -73.268  0.0000E+00  0.0000E+00  0.0000E+00
    -72.973  0.0000E+00  0.0000E+00  0.0000E+00
    -72.679  0.0000E+00  0.0000E+00  0.0000E+00
    -72.385  0.2042E-21  0.3582E-19  0.1975E-19
    -72.091  0.4547E-12  0.5834E-10  0.3553E-10
    -71.797  0.4795E-09  0.4877E-07  0.3029E-07
    -71.503  0.6132E-09  0.3611E-06  0.4019E-07
    -71.209  0.3778E-05  0.1794E-01  0.6397E-05
    -70.915  0.2081E-04  0.6169E+01  0.4263E-04
    -70.621  0.2588E-04  0.1413E+02  0.3445E-04
    -70.327  0.3868E-07  0.1672E-01  0.2261E-07
    -70.033  0.1271E-13  0.1409E-09  0.2951E-11
    -69.739  0.0000E+00  0.0000E+00  0.0000E+00
    -69.445  0.0000E+00  0.0000E+00  0.0000E+00
    -69.151  0.0000E+00  0.0000E+00  0.0000E+00
    -68.857  0.0000E+00  0.0000E+00  0.0000E+00
    -68.562  0.0000E+00  0.0000E+00  0.0000E+00
    -68.268  0.0000E+00  0.0000E+00  0.0000E+00
    -67.974  0.0000E+00  0.0000E+00  0.0000E+00
    -67.680  0.0000E+00  0.0000E+00  0.0000E+00
    -67.386  0.0000E+00  0.0000E+00  0.0000E+00
    -67.092  0.0000E+00  0.0000E+00  0.0000E+00
    -66.798  0.0000E+00  0.0000E+00  0.0000E+00
    -66.504  0.0000E+00  0.0000E+00  0.0000E+00
    -66.210  0.0000E+00  0.0000E+00  0.0000E+00
    -65.916  0.0000E+00  0.0000E+00  0.0000E+00
    -65.622  0.0000E+00  0.0000E+00  0.0000E+00
    -65.328  0.0000E+00  0.0000E+00  0.0000E+00
    -65.034  0.0000E+00  0.0000E+00  0.0000E+00
    -64.740  0.0000E+00  0.0000E+00  0.0000E+00
    -64.446  0.0000E+00  0.0000E+00  0.0000E+00
    -64.151  0.0000E+00  0.0000E+00  0.0000E+00
    -63.857  0.0000E+00  0.0000E+00  0.0000E+00
    -63.563  0.0000E+00  0.0000E+00  0.0000E+00
    -63.269  0.0000E+00  0.0000E+00  0.0000E+00
    -62.975  0.0000E+00  0.0000E+00  0.0000E+00
    -62.681  0.0000E+00  0.0000E+00  0.0000E+00
    -62.387  0.0000E+00  0.0000E+00  0.0000E+00
    -62.093  0.0000E+00  0.0000E+00  0.0000E+00
    -61.799  0.0000E+00  0.0000E+00  0.0000E+00
    -61.505  0.0000E+00  0.0000E+00  0.0000E+00
    -61.211  0.0000E+00  0.0000E+00  0.0000E+00
    -60.917  0.0000E+00  0.0000E+00  0.0000E+00
    -60.623  0.0000E+00  0.0000E+00  0.0000E+00
    -60.329  0.0000E+00  0.0000E+00  0.0000E+00
    -60.034  0.0000E+00  0.0000E+00  0.0000E+00
    -59.740  0.0000E+00  0.0000E+00  0.0000E+00
    -59.446  0.0000E+00  0.0000E+00  0.0000E+00
    -59.152  0.0000E+00  0.0000E+00  0.0000E+00
    -58.858  0.0000E+00  0.0000E+00  0.0000E+00
    -58.564  0.0000E+00  0.0000E+00  0.0000E+00
    -58.270  0.0000E+00  0.0000E+00  0.0000E+00
    -57.976  0.0000E+00  0.0000E+00  0.0000E+00
    -57.682  0.0000E+00  0.0000E+00  0.0000E+00
    -57.388  0.0000E+00  0.0000E+00  0.0000E+00
    -57.094  0.0000E+00  0.0000E+00  0.0000E+00
    -56.800  0.0000E+00  0.0000E+00  0.0000E+00
    -56.506  0.0000E+00  0.0000E+00  0.0000E+00
    -56.212  0.0000E+00  0.0000E+00  0.0000E+00
    -55.918  0.0000E+00  0.0000E+00  0.0000E+00
    -55.623  0.0000E+00  0.0000E+00  0.0000E+00
    -55.329  0.0000E+00  0.0000E+00  0.0000E+00
    -55.035  0.0000E+00  0.0000E+00  0.0000E+00
    -54.741  0.0000E+00  0.0000E+00  0.0000E+00
    -54.447  0.0000E+00  0.0000E+00  0.0000E+00
    -54.153  0.0000E+00  0.0000E+00  0.0000E+00
    -53.859  0.0000E+00  0.0000E+00  0.0000E+00
    -53.565  0.0000E+00  0.0000E+00  0.0000E+00
    -53.271  0.0000E+00  0.0000E+00  0.0000E+00
    -52.977  0.0000E+00  0.0000E+00  0.0000E+00
    -52.683  0.0000E+00  0.0000E+00  0.0000E+00
    -52.389  0.0000E+00  0.0000E+00  0.0000E+00
    -52.095  0.0000E+00  0.0000E+00  0.0000E+00
    -51.801  0.0000E+00  0.0000E+00  0.0000E+00
    -51.507  0.0000E+00  0.0000E+00  0.0000E+00
    -51.212  0.0000E+00  0.0000E+00  0.0000E+00
    -50.918  0.0000E+00  0.0000E+00  0.0000E+00
    -50.624  0.0000E+00  0.0000E+00  0.0000E+00
    -50.330  0.0000E+00  0.0000E+00  0.0000E+00
    -50.036  0.0000E+00  0.0000E+00  0.0000E+00
    -49.742  0.0000E+00  0.0000E+00  0.0000E+00
    -49.448  0.0000E+00  0.0000E+00  0.0000E+00
    -49.154  0.0000E+00  0.0000E+00  0.0000E+00
    -48.860  0.0000E+00  0.0000E+00  0.0000E+00
    -48.566  0.0000E+00  0.0000E+00  0.0000E+00
    -48.272  0.0000E+00  0.0000E+00  0.0000E+00
    -47.978  0.0000E+00  0.0000E+00  0.0000E+00
    -47.684  0.0000E+00  0.0000E+00  0.0000E+00
    -47.390  0.0000E+00  0.0000E+00  0.0000E+00
    -47.095  0.0000E+00  0.0000E+00  0.0000E+00
    -46.801  0.0000E+00  0.0000E+00  0.0000E+00
    -46.507  0.0000E+00  0.0000E+00  0.0000E+00
    -46.213  0.0000E+00  0.0000E+00  0.0000E+00
    -45.919  0.0000E+00  0.0000E+00  0.0000E+00
    -45.625  0.0000E+00  0.0000E+00  0.0000E+00
    -45.331  0.0000E+00  0.0000E+00  0.0000E+00
    -45.037  0.0000E+00  0.0000E+00  0.0000E+00
    -44.743  0.0000E+00  0.0000E+00  0.0000E+00
    -44.449  0.0000E+00  0.0000E+00  0.0000E+00
    -44.155  0.0000E+00  0.0000E+00  0.0000E+00
    -43.861  0.0000E+00  0.0000E+00  0.0000E+00
    -43.567  0.0000E+00  0.0000E+00  0.0000E+00
    -43.273  0.0000E+00  0.0000E+00  0.0000E+00
    -42.979  0.0000E+00  0.0000E+00  0.0000E+00
    -42.684  0.0000E+00  0.0000E+00  0.0000E+00
    -42.390  0.0000E+00  0.0000E+00  0.0000E+00
    -42.096  0.0000E+00  0.0000E+00  0.0000E+00
    -41.802  0.0000E+00  0.0000E+00  0.0000E+00
    -41.508  0.0000E+00  0.0000E+00  0.0000E+00
    -41.214  0.0000E+00  0.0000E+00  0.0000E+00
    -40.920  0.0000E+00  0.0000E+00  0.0000E+00
    -40.626  0.0000E+00  0.0000E+00  0.0000E+00
    -40.332  0.0000E+00  0.0000E+00  0.0000E+00
    -40.038  0.0000E+00  0.0000E+00  0.0000E+00
    -39.744  0.0000E+00  0.0000E+00  0.0000E+00
    -39.450  0.0000E+00  0.0000E+00  0.0000E+00
    -39.156  0.0000E+00  0.0000E+00  0.0000E+00
    -38.862  0.0000E+00  0.0000E+00  0.0000E+00
    -38.568  0.0000E+00  0.0000E+00  0.0000E+00
    -38.273  0.0000E+00  0.0000E+00  0.0000E+00
    -37.979  0.0000E+00  0.0000E+00  0.0000E+00
    -37.685  0.0000E+00  0.0000E+00  0.0000E+00
    -37.391  0.0000E+00  0.0000E+00  0.0000E+00
    -37.097  0.0000E+00  0.0000E+00  0.0000E+00
    -36.803  0.0000E+00  0.0000E+00  0.0000E+00
    -36.509  0.0000E+00  0.0000E+00  0.0000E+00
    -36.215  0.0000E+00  0.0000E+00  0.0000E+00
    -35.921  0.0000E+00  0.0000E+00  0.0000E+00
    -35.627  0.0000E+00  0.0000E+00  0.0000E+00
    -35.333  0.0000E+00  0.0000E+00  0.0000E+00
    -35.039  0.0000E+00  0.0000E+00  0.0000E+00
    -34.745  0.0000E+00  0.0000E+00  0.0000E+00
    -34.451  0.0000E+00  0.0000E+00  0.0000E+00
    -34.157  0.0000E+00  0.0000E+00  0.0000E+00
    -33.862  0.0000E+00  0.0000E+00  0.0000E+00
    -33.568  0.0000E+00  0.0000E+00  0.0000E+00
    -33.274  0.0000E+00  0.0000E+00  0.0000E+00
    -32.980  0.0000E+00  0.0000E+00  0.0000E+00
    -32.686  0.0000E+00  0.0000E+00  0.0000E+00
    -32.392  0.0000E+00  0.0000E+00  0.0000E+00
    -32.098  0.0000E+00  0.0000E+00  0.0000E+00
    -31.804  0.0000E+00  0.0000E+00  0.0000E+00
    -31.510  0.0000E+00  0.0000E+00  0.0000E+00
    -31.216  0.0000E+00  0.0000E+00  0.0000E+00
    -30.922  0.0000E+00  0.0000E+00  0.0000E+00
    -30.628  0.0000E+00  0.0000E+00  0.0000E+00
    -30.334  0.0000E+00  0.0000E+00  0.0000E+00
    -30.040  0.0000E+00  0.0000E+00  0.0000E+00
    -29.745  0.0000E+00  0.0000E+00  0.0000E+00
    -29.451  0.0000E+00  0.0000E+00  0.0000E+00
    -29.157  0.0000E+00  0.0000E+00  0.0000E+00
    -28.863  0.0000E+00  0.0000E+00  0.0000E+00
    -28.569  0.0000E+00  0.0000E+00  0.0000E+00
    -28.275  0.0000E+00  0.0000E+00  0.0000E+00
    -27.981  0.0000E+00  0.0000E+00  0.0000E+00
    -27.687  0.0000E+00  0.0000E+00  0.0000E+00
    -27.393  0.0000E+00  0.0000E+00  0.0000E+00
    -27.099  0.0000E+00  0.0000E+00  0.0000E+00
    -26.805  0.0000E+00  0.0000E+00  0.0000E+00
    -26.511  0.0000E+00  0.0000E+00  0.0000E+00
    -26.217  0.0000E+00  0.0000E+00  0.0000E+00
    -25.923  0.0000E+00  0.0000E+00  0.0000E+00
    -25.629  0.0000E+00  0.0000E+00  0.0000E+00
    -25.334  0.0000E+00  0.0000E+00  0.0000E+00
    -25.040  0.0000E+00  0.0000E+00  0.0000E+00
    -24.746  0.0000E+00  0.0000E+00  0.0000E+00
    -24.452  0.0000E+00  0.0000E+00  0.0000E+00
    -24.158  0.0000E+00  0.0000E+00  0.0000E+00
    -23.864  0.0000E+00  0.0000E+00  0.0000E+00
    -23.570  0.0000E+00  0.0000E+00  0.0000E+00
    -23.276  0.0000E+00  0.0000E+00  0.0000E+00
    -22.982  0.0000E+00  0.0000E+00  0.0000E+00
    -22.688  0.0000E+00  0.0000E+00  0.0000E+00
    -22.394  0.0000E+00  0.0000E+00  0.0000E+00
    -22.100  0.0000E+00  0.0000E+00  0.0000E+00
    -21.806  0.0000E+00  0.0000E+00  0.0000E+00
    -21.512  0.0000E+00  0.0000E+00  0.0000E+00
    -21.218  0.0000E+00  0.0000E+00  0.0000E+00
    -20.923  0.0000E+00  0.0000E+00  0.0000E+00
    -20.629  0.0000E+00  0.0000E+00  0.0000E+00
    -20.335  0.0000E+00  0.0000E+00  0.0000E+00
    -20.041  0.0000E+00  0.0000E+00  0.0000E+00
    -19.747  0.0000E+00  0.0000E+00  0.0000E+00
    -19.453  0.0000E+00  0.0000E+00  0.0000E+00
    -19.159  0.0000E+00  0.0000E+00  0.0000E+00
    -18.865  0.0000E+00  0.0000E+00  0.0000E+00
    -18.571  0.0000E+00  0.0000E+00  0.0000E+00
    -18.277  0.0000E+00  0.0000E+00  0.0000E+00
    -17.983  0.0000E+00  0.0000E+00  0.0000E+00
    -17.689  0.0000E+00  0.0000E+00  0.0000E+00
    -17.395  0.0000E+00  0.0000E+00  0.0000E+00
    -17.101  0.0000E+00  0.0000E+00  0.0000E+00
    -16.806  0.0000E+00  0.0000E+00  0.0000E+00
    -16.512  0.0000E+00  0.0000E+00  0.0000E+00
    -16.218  0.0000E+00  0.0000E+00  0.0000E+00
    -15.924  0.0000E+00  0.0000E+00  0.0000E+00
    -15.630  0.0000E+00  0.0000E+00  0.0000E+00
    -15.336  0.0000E+00  0.0000E+00  0.0000E+00
    -15.042  0.0000E+00  0.0000E+00  0.0000E+00
    -14.748  0.0000E+00  0.0000E+00  0.0000E+00
    -14.454  0.0000E+00  0.0000E+00  0.0000E+00
    -14.160  0.0000E+00  0.0000E+00  0.0000E+00
    -13.866  0.0000E+00  0.0000E+00  0.0000E+00
    -13.572  0.0000E+00  0.0000E+00  0.0000E+00
    -13.278  0.0000E+00  0.0000E+00  0.0000E+00
    -12.984  0.3457E-19  0.6451E-20  0.6449E-21
    -12.690  0.6479E-09  0.1221E-09  0.1298E-10
    -12.395  0.4546E-05  0.9328E-06  0.1505E-06
    -12.101  0.9074E-05  0.2242E-05  0.7251E-06
    -11.807  0.1821E-06  0.6126E-07  0.3894E-07
    -11.513  0.1091E-12  0.4120E-13  0.3332E-13
    -11.219  0.0000E+00  0.0000E+00  0.0000E+00
    -10.925  0.0000E+00  0.0000E+00  0.0000E+00
    -10.631  0.7431E-10  0.6481E-11  0.7081E-13
    -10.337  0.2689E-03  0.2345E-04  0.2571E-06
    -10.043  0.8904E-02  0.9036E-03  0.6144E-04
     -9.749  0.8841E-02  0.9546E-03  0.8766E-04
     -9.455  0.1588E-01  0.2379E-02  0.6018E-03
     -9.161  0.1023E-01  0.1700E-02  0.5468E-03
     -8.867  0.3561E-02  0.7977E-03  0.4956E-03
     -8.573  0.3374E-01  0.4848E-02  0.3632E-02
     -8.279  0.3377E-01  0.3590E-02  0.3644E-02
     -7.984  0.4752E-01  0.5027E-02  0.3482E-02
     -7.690  0.2910E-01  0.7328E-02  0.9146E-02
     -7.396  0.4616E-01  0.1092E-01  0.1189E-01
     -7.102  0.1766E-01  0.4601E-02  0.1013E-01
     -6.808  0.6242E-01  0.1193E-01  0.4785E-01
     -6.514  0.7228E-01  0.1505E-01  0.5656E-01
     -6.220  0.7326E-01  0.1836E-01  0.1242E+00
     -5.926  0.6947E-01  0.2502E-01  0.2096E+00
     -5.632  0.7479E-01  0.2936E-01  0.3418E+00
     -5.338  0.9378E-01  0.2782E-01  0.8279E+00
     -5.044  0.2748E-01  0.2418E-01  0.9678E+00
     -4.750  0.1601E-01  0.2516E-01  0.1357E+01
     -4.456  0.1647E-01  0.2123E-01  0.1593E+01
     -4.162  0.2136E-01  0.2446E-01  0.2146E+01
     -3.867  0.3888E-01  0.5442E-01  0.4161E+01
     -3.573  0.1995E-01  0.4222E-01  0.3157E+01
     -3.279  0.3080E-01  0.5315E-01  0.3387E+01
     -2.985  0.2010E-01  0.2588E-01  0.3743E+01
     -2.691  0.2244E-01  0.2472E-01  0.4823E+01
     -2.397  0.1859E-01  0.1471E-01  0.2119E+01
     -2.103  0.2774E-01  0.1838E-01  0.4739E+00
     -1.809  0.3288E-01  0.2646E-01  0.2390E+00
     -1.515  0.2022E-01  0.1798E-01  0.9591E-01
     -1.221  0.2253E-01  0.3949E-01  0.1518E+00
     -0.927  0.4012E-01  0.5299E-01  0.2425E+00
     -0.633  0.3552E-01  0.6000E-01  0.1146E+00
     -0.339  0.4504E-02  0.8234E-02  0.2308E-01
     -0.045  0.4158E-01  0.6045E-01  0.1609E+00
      0.249  0.2374E-01  0.6395E-01  0.9640E-01
      0.544  0.1617E-01  0.7626E-01  0.6107E-01
      0.838  0.1417E-01  0.3978E-01  0.5190E-01
      1.132  0.2656E-01  0.8464E-01  0.1049E+00
      1.426  0.6914E-02  0.5607E-01  0.6204E-01
      1.720  0.2018E-01  0.3634E-01  0.5294E-01
      2.014  0.2033E-01  0.5898E-01  0.8349E-01
      2.308  0.4170E-02  0.3400E-01  0.2832E-01
      2.602  0.4372E-02  0.3209E-01  0.2177E-01
      2.896  0.4363E-02  0.5004E-01  0.4005E-01
      3.190  0.8174E-02  0.4635E-01  0.4429E-01
      3.484  0.1701E-01  0.3162E-01  0.4547E-01
      3.778  0.4302E-01  0.2513E-01  0.4045E-01
      4.072  0.1814E-01  0.1665E-01  0.3829E-01
      4.366  0.3677E-01  0.4917E-01  0.6089E-01
      4.660  0.6446E-01  0.4526E-01  0.5467E-01
      4.955  0.1387E+00  0.5362E-01  0.8549E-01
      5.249  0.2762E-01  0.2057E-01  0.5432E-01
      5.543  0.1066E+00  0.1105E+00  0.1230E+00
      5.837  0.1589E-01  0.2999E-01  0.2316E-01
      6.131  0.3685E-01  0.7224E-01  0.6332E-01
      6.425  0.3994E-01  0.8545E-01  0.5727E-01
      6.719  0.3148E-01  0.5517E-01  0.4823E-01
      7.013  0.6036E-01  0.8564E-01  0.5389E-01
      7.307  0.4194E-01  0.3593E-01  0.3139E-01
      7.601  0.5458E-01  0.8764E-01  0.7957E-01
      7.895  0.2657E-01  0.4755E-01  0.4066E-01
      8.189  0.3408E-01  0.5771E-01  0.3464E-01
      8.483  0.2046E-01  0.2546E-01  0.1159E-01
      8.777  0.4794E-04  0.5386E-04  0.2360E-04
      9.071  0.5217E-13  0.5866E-13  0.2569E-13
      9.366  0.0000E+00  0.0000E+00  0.0000E+00
      9.660  0.0000E+00  0.0000E+00  0.0000E+00
      9.954  0.0000E+00  0.0000E+00  0.0000E+00
     10.248  0.0000E+00  0.0000E+00  0.0000E+00
     10.542  0.0000E+00  0.0000E+00  0.0000E+00
     10.836  0.0000E+00  0.0000E+00  0.0000E+00
     11.130  0.0000E+00  0.0000E+00  0.0000E+00
     11.424  0.0000E+00  0.0000E+00  0.0000E+00
     11.718  0.0000E+00  0.0000E+00  0.0000E+00
     12.012  0.0000E+00  0.0000E+00  0.0000E+00
     12.306  0.0000E+00  0.0000E+00  0.0000E+00
     12.30624707    -75.91416376  301     -1.03444153      1.00000000
    -75.914  0.0000E+00  0.0000E+00  0.0000E+00
    -75.620  0.0000E+00  0.0000E+00  0.0000E+00
    -75.326  0.0000E+00  0.0000E+00  0.0000E+00
    -75.032  0.0000E+00  0.0000E+00  0.0000E+00
    -74.738  0.0000E+00  0.0000E+00  0.0000E+00
    -74.444  0.0000E+00  0.0000E+00  0.0000E+00
    -74.150  0.0000E+00  0.0000E+00  0.0000E+00
    -73.856  0.0000E+00  0.0000E+00  0.0000E+00
    -73.562  0.0000E+00  0.0000E+00  0.0000E+00
    -73.268  0.0000E+00  0.0000E+00  0.0000E+00
    -72.973  0.0000E+00  0.0000E+00  0.0000E+00
    -72.679  0.0000E+00  0.0000E+00  0.0000E+00
    -72.385  0.1565E-21  0.4625E-19  0.1826E-19
    -72.091  0.3725E-12  0.6728E-10  0.3247E-10
    -71.797  0.4028E-09  0.4610E-07  0.2808E-07
    -71.503  0.5824E-09  0.3618E-06  0.3982E-07
    -71.209  0.3774E-05  0.1796E-01  0.6404E-05
    -70.915  0.2075E-04  0.6166E+01  0.4249E-04
    -70.621  0.2594E-04  0.1414E+02  0.3457E-04
    -70.327  0.3875E-07  0.1669E-01  0.2362E-07
    -70.033  0.3409E-13  0.1892E-09  0.3178E-11
    -69.739  0.0000E+00  0.0000E+00  0.0000E+00
    -69.445  0.0000E+00  0.0000E+00  0.0000E+00
    -69.151  0.0000E+00  0.0000E+00  0.0000E+00
    -68.857  0.0000E+00  0.0000E+00  0.0000E+00
    -68.562  0.0000E+00  0.0000E+00  0.0000E+00
    -68.268  0.0000E+00  0.0000E+00  0.0000E+00
    -67.974  0.0000E+00  0.0000E+00  0.0000E+00
    -67.680  0.0000E+00  0.0000E+00  0.0000E+00
    -67.386  0.0000E+00  0.0000E+00  0.0000E+00
    -67.092  0.0000E+00  0.0000E+00  0.0000E+00
    -66.798  0.0000E+00  0.0000E+00  0.0000E+00
    -66.504  0.0000E+00  0.0000E+00  0.0000E+00
    -66.210  0.0000E+00  0.0000E+00  0.0000E+00
    -65.916  0.0000E+00  0.0000E+00  0.0000E+00
    -65.622  0.0000E+00  0.0000E+00  0.0000E+00
    -65.328  0.0000E+00  0.0000E+00  0.0000E+00
    -65.034  0.0000E+00  0.0000E+00  0.0000E+00
    -64.740  0.0000E+00  0.0000E+00  0.0000E+00
    -64.446  0.0000E+00  0.0000E+00  0.0000E+00
    -64.151  0.0000E+00  0.0000E+00  0.0000E+00
    -63.857  0.0000E+00  0.0000E+00  0.0000E+00
    -63.563  0.0000E+00  0.0000E+00  0.0000E+00
    -63.269  0.0000E+00  0.0000E+00  0.0000E+00
    -62.975  0.0000E+00  0.0000E+00  0.0000E+00
    -62.681  0.0000E+00  0.0000E+00  0.0000E+00
    -62.387  0.0000E+00  0.0000E+00  0.0000E+00
    -62.093  0.0000E+00  0.0000E+00  0.0000E+00
    -61.799  0.0000E+00  0.0000E+00  0.0000E+00
    -61.505  0.0000E+00  0.0000E+00  0.0000E+00
    -61.211  0.0000E+00  0.0000E+00  0.0000E+00
    -60.917  0.0000E+00  0.0000E+00  0.0000E+00
    -60.623  0.0000E+00  0.0000E+00  0.0000E+00
    -60.329  0.0000E+00  0.0000E+00  0.0000E+00
    -60.034  0.0000E+00  0.0000E+00  0.0000E+00
    -59.740  0.0000E+00  0.0000E+00  0.0000E+00
    -59.446  0.0000E+00  0.0000E+00  0.0000E+00
    -59.152  0.0000E+00  0.0000E+00  0.0000E+00
    -58.858  0.0000E+00  0.0000E+00  0.0000E+00
    -58.564  0.0000E+00  0.0000E+00  0.0000E+00
    -58.270  0.0000E+00  0.0000E+00  0.0000E+00
    -57.976  0.0000E+00  0.0000E+00  0.0000E+00
    -57.682  0.0000E+00  0.0000E+00  0.0000E+00
    -57.388  0.0000E+00  0.0000E+00  0.0000E+00
    -57.094  0.0000E+00  0.0000E+00  0.0000E+00
    -56.800  0.0000E+00  0.0000E+00  0.0000E+00
    -56.506  0.0000E+00  0.0000E+00  0.0000E+00
    -56.212  0.0000E+00  0.0000E+00  0.0000E+00
    -55.918  0.0000E+00  0.0000E+00  0.0000E+00
    -55.623  0.0000E+00  0.0000E+00  0.0000E+00
    -55.329  0.0000E+00  0.0000E+00  0.0000E+00
    -55.035  0.0000E+00  0.0000E+00  0.0000E+00
    -54.741  0.0000E+00  0.0000E+00  0.0000E+00
    -54.447  0.0000E+00  0.0000E+00  0.0000E+00
    -54.153  0.0000E+00  0.0000E+00  0.0000E+00
    -53.859  0.0000E+00  0.0000E+00  0.0000E+00
    -53.565  0.0000E+00  0.0000E+00  0.0000E+00
    -53.271  0.0000E+00  0.0000E+00  0.0000E+00
    -52.977  0.0000E+00  0.0000E+00  0.0000E+00
    -52.683  0.0000E+00  0.0000E+00  0.0000E+00
    -52.389  0.0000E+00  0.0000E+00  0.0000E+00
    -52.095  0.0000E+00  0.0000E+00  0.0000E+00
    -51.801  0.0000E+00  0.0000E+00  0.0000E+00
    -51.507  0.0000E+00  0.0000E+00  0.0000E+00
    -51.212  0.0000E+00  0.0000E+00  0.0000E+00
    -50.918  0.0000E+00  0.0000E+00  0.0000E+00
    -50.624  0.0000E+00  0.0000E+00  0.0000E+00
    -50.330  0.0000E+00  0.0000E+00  0.0000E+00
    -50.036  0.0000E+00  0.0000E+00  0.0000E+00
    -49.742  0.0000E+00  0.0000E+00  0.0000E+00