   17   17  150    1
  0.3364036E+02  0.5019695E-09  0.5019695E-09  0.2620742E-08  0.5000000E-15
  1.000000000000000E-004
  CAR 
 unknown system                          
    276     13    168
 
  0.0000000E+00  0.0000000E+00  0.0000000E+00  0.2777778E-01
    1      -71.904145
    2      -71.844701
    3      -71.843657
    4      -71.547021
    5      -71.546550
    6      -71.532546
    7      -71.507231
    8      -71.493109
    9      -71.492629
   10      -71.227455
   11      -71.213159
   12      -71.213130
   13      -71.196157
   14      -71.180333
   15      -71.180279
   16      -71.156430
   17      -71.149411
   18      -71.142481
   19      -71.141825
   20      -71.141715
   21      -71.138028
   22      -71.138010
   23      -71.117097
   24      -71.109464
   25      -71.109359
   26      -71.084018
   27      -71.083634
   28      -71.078187
   29      -71.073008
   30      -71.072950
   31      -71.059989
   32      -71.043987
   33      -71.043847
   34      -70.956985
   35      -70.956888
   36      -70.943785
   37      -70.880162
   38      -70.880115
   39      -70.880080
   40      -70.852044
   41      -70.851994
   42      -70.832801
   43      -70.823601
   44      -70.819921
   45      -70.819760
   46      -70.689372
   47      -70.689314
   48      -70.571056
   49      -12.448307
   50      -10.247086
   51       -8.717781
   52       -7.068646
   53       -6.466258
   54       -6.405688
   55       -6.405395
   56       -6.206595
   57       -6.149806
   58       -6.149357
   59       -6.135052
   60       -6.012761
   61       -6.012240
   62       -5.974951
   63       -5.638171
   64       -5.637624
   65       -5.605511
   66       -5.552572
   67       -5.551129
   68       -5.550793
   69       -5.307377
   70       -5.307319
   71       -5.215165
   72       -4.991188
   73       -4.990502
   74       -4.622652
   75       -4.600225
   76       -4.543901
   77       -4.543723
   78       -4.373391
   79       -4.372372
   80       -4.339082
   81       -4.295081
   82       -4.247616
   83       -4.246984
   84       -4.164898
   85       -4.164555
   86       -4.128095
   87       -4.123834
   88       -4.123793
   89       -4.062668
   90       -4.041414
   91       -4.041048
   92       -3.904286
   93       -3.904248
   94       -3.854688
   95       -3.849608
   96       -3.849569
   97       -3.806584
   98       -3.691610
   99       -3.691072
  100       -3.533691
  101       -3.390150
  102       -3.390069
  103       -3.330354
  104       -3.327633
  105       -3.260067
  106       -3.259415
  107       -3.255734
  108       -3.095415
  109       -3.095242
  110       -3.064648
  111       -3.057894
  112       -2.952956
  113       -2.952438
  114       -2.850864
  115       -2.850470
  116       -2.792552
  117       -2.770256
  118       -2.767247
  119       -2.766563
  120       -2.741587
  121       -2.741409
  122       -2.685095
  123       -2.684619
  124       -2.676263
  125       -2.673327
  126       -2.672848
  127       -2.586706
  128       -2.586560
  129       -2.585185
  130       -2.419777
  131       -2.419717
  132       -2.413689
  133       -2.116047
  134       -1.895743
  135       -1.787455
  136       -1.786700
  137       -0.956345
  138       -0.906597
  139       -0.906591
  140       -0.155973
  141       -0.153318
  142       -0.042717
  143        0.040202
  144        0.399265
  145        0.400847
  146        0.420007
  147        0.994329
  148        0.995120
  149        2.572189
  150        3.337193
  151        3.463810
  152        3.470906
  153        3.809587
  154        4.228859
  155        4.488703
  156        4.578353
  157        4.581047
  158        4.982838
  159        5.201472
  160        5.932929
  161        5.990261
  162        5.994822
  163        6.292147
  164        6.363239
  165        7.559992
  166        7.684563
  167        7.693509
  168        8.082327
 
  0.1666667E+00 -0.4163336E-16  0.0000000E+00  0.5555556E-01
    1      -71.900500
    2      -71.846650
    3      -71.844458
    4      -71.546188
    5      -71.544015
    6      -71.530562
    7      -71.509194
    8      -71.495251
    9      -71.493555
   10      -71.223233
   11      -71.209083
   12      -71.207827
   13      -71.194377
   14      -71.180080
   15      -71.179477
   16      -71.156118
   17      -71.146152
   18      -71.145797
   19      -71.141747
   20      -71.139652
   21      -71.137471
   22      -71.137191
   23      -71.117644
   24      -71.115027
   25      -71.110615
   26      -71.085535
   27      -71.083476
   28      -71.078070
   29      -71.074728
   30      -71.072956
   31      -71.061542
   32      -71.049599
   33      -71.045121
   34      -70.953542
   35      -70.951373
   36      -70.939152
   37      -70.884125
   38      -70.883510
   39      -70.878600
   40      -70.858135
   41      -70.853130
   42      -70.831913
   43      -70.823772
   44      -70.820431
   45      -70.819892
   46      -70.689783
   47      -70.689391
   48      -70.571057
   49      -12.382674
   50      -10.031133
   51       -8.541927
   52       -6.940404
   53       -6.529884
   54       -6.368543
   55       -6.327189
   56       -6.288328
   57       -6.154667
   58       -6.095235
   59       -6.085553
   60       -5.974842
   61       -5.927791
   62       -5.883540
   63       -5.586573
   64       -5.564562
   65       -5.533629
   66       -5.506735
   67       -5.469576
   68       -5.461786
   69       -5.260483
   70       -5.241148
   71       -5.159859
   72       -5.006929
   73       -4.990323
   74       -4.674005
   75       -4.619200
   76       -4.579896
   77       -4.528178
   78       -4.406911
   79       -4.349298
   80       -4.346405
   81       -4.308747
   82       -4.288231
   83       -4.245787
   84       -4.228374
   85       -4.205001
   86       -4.147596
   87       -4.131234
   88       -4.112555
   89       -4.076758
   90       -4.042983
   91       -4.009898
   92       -3.986711
   93       -3.959983
   94       -3.918375
   95       -3.884156
   96       -3.881770
   97       -3.791537
   98       -3.787813
   99       -3.731031
  100       -3.699889
  101       -3.497684
  102       -3.490230
  103       -3.423635
  104       -3.398058
  105       -3.352442
  106       -3.314537
  107       -3.268343
  108       -3.261255
  109       -3.221680
  110       -3.112946
  111       -3.106738
  112       -3.061531
  113       -3.001536
  114       -2.981424
  115       -2.940117
  116       -2.924860
  117       -2.880187
  118       -2.866995
  119       -2.833558
  120       -2.828015
  121       -2.810121
  122       -2.766592
  123       -2.765387
  124       -2.745961
  125       -2.729536
  126       -2.724042
  127       -2.703149
  128       -2.691301
  129       -2.658859
  130       -2.586213
  131       -2.576783
  132       -2.525493
  133       -2.514226
  134       -1.978502
  135       -1.712326
  136       -1.673467
  137       -1.442696
  138       -1.067718
  139       -1.030689
  140       -0.899751
  141       -0.250702
  142       -0.129857
  143        0.193136
  144        0.768743
  145        0.974760
  146        1.243899
  147        1.755026
  148        1.851833
  149        3.047250
  150        3.545167
  151        3.659840
  152        3.837949
  153        4.131182
  154        4.453784
  155        4.724382
  156        4.814472
  157        4.893234
  158        5.190739
  159        5.378237
  160        6.085192
  161        6.207662
  162        6.237082
  163        6.530073
  164        6.762890
  165        7.415702
  166        7.771850
  167        8.041412
  168        8.188602
 
  0.3333333E+00  0.0000000E+00  0.0000000E+00  0.5555556E-01
    1      -71.892017
    2      -71.854604
    3      -71.844130
    4      -71.545167
    5      -71.538096
    6      -71.525613
    7      -71.514924
    8      -71.502189
    9      -71.494340
   10      -71.214354
   11      -71.199279
   12      -71.195485
   13      -71.188242
   14      -71.180861
   15      -71.177799
   16      -71.157513
   17      -71.155884
   18      -71.149462
   19      -71.138100
   20      -71.135090
   21      -71.134207
   22      -71.132608
   23      -71.125421
   24      -71.115439
   25      -71.114623
   26      -71.091814
   27      -71.083387
   28      -71.080196
   29      -71.076713
   30      -71.075074
   31      -71.064726
   32      -71.062305
   33      -71.049201
   34      -70.945830
   35      -70.938260
   36      -70.926059
   37      -70.894616
   38      -70.891770
   39      -70.875846
   40      -70.875009
   41      -70.857209
   42      -70.830654
   43      -70.824278
   44      -70.821218
   45      -70.819722
   46      -70.691198
   47      -70.689966
   48      -70.571051
   49      -12.246434
   50       -9.399931
   51       -8.055111
   52       -7.285807
   53       -6.756891
   54       -6.440801
   55       -6.129243
   56       -6.128104
   57       -6.007109
   58       -5.941655
   59       -5.893991
   60       -5.841516
   61       -5.721819
   62       -5.670888
   63       -5.498702
   64       -5.394279
   65       -5.385235
   66       -5.344105
   67       -5.316660
   68       -5.283839
   69       -5.154839
   70       -5.067338
   71       -5.014603
   72       -4.960005
   73       -4.950971
   74       -4.818197
   75       -4.712781
   76       -4.706115
   77       -4.635839
   78       -4.582622
   79       -4.560151
   80       -4.467949
   81       -4.453899
   82       -4.419885
   83       -4.331841
   84       -4.325086
   85       -4.277897
   86       -4.215521
   87       -4.213265
   88       -4.178379
   89       -4.110463
   90       -4.090836
   91       -4.063021
   92       -4.024278
   93       -3.975508
   94       -3.953230
   95       -3.932750
   96       -3.900127
   97       -3.885110
   98       -3.869062
   99       -3.836133
  100       -3.791189
  101       -3.758915
  102       -3.691219
  103       -3.594097
  104       -3.579017
  105       -3.557210
  106       -3.515217
  107       -3.488093
  108       -3.442422
  109       -3.373757
  110       -3.370036
  111       -3.340283
  112       -3.307271
  113       -3.289594
  114       -3.204244
  115       -3.166654
  116       -3.115193
  117       -3.115062
  118       -3.076136
  119       -3.043216
  120       -3.016705
  121       -3.012543
  122       -2.965554
  123       -2.945589
  124       -2.942596
  125       -2.896448
  126       -2.828067
  127       -2.813893
  128       -2.742082
  129       -2.719909
  130       -2.714876
  131       -2.672492
  132       -2.615845
  133       -2.610288
  134       -2.395007
  135       -1.954092
  136       -1.652289
  137       -1.347467
  138       -1.071745
  139       -0.969087
  140       -0.787539
  141       -0.190386
  142       -0.118368
  143        0.347811
  144        0.972690
  145        1.622132
  146        1.890741
  147        2.372947
  148        3.261753
  149        3.378434
  150        4.142971
  151        4.315383
  152        4.356158
  153        4.880760
  154        5.144428
  155        5.371649
  156        5.443002
  157        5.744926
  158        6.001445
  159        6.206458
  160        6.720135
  161        6.861422
  162        6.864308
  163        7.101552
  164        7.260546
  165        7.683414
  166        7.782080
  167        8.099560
  168        8.178610
 
  0.5000000E+00 -0.5551115E-16  0.0000000E+00  0.2777778E-01
    1      -71.885762
    2      -71.860274
    3      -71.843770
    4      -71.544560
    5      -71.533102
    6      -71.521171
    7      -71.519453
    8      -71.507298
    9      -71.494478
   10      -71.209043
   11      -71.191714
   12      -71.191417
   13      -71.182374
   14      -71.177111
   15      -71.170527
   16      -71.168686
   17      -71.163149
   18      -71.151588
   19      -71.144181
   20      -71.132985
   21      -71.132188
   22      -71.131375
   23      -71.117012
   24      -71.115436
   25      -71.113183
   26      -71.094327
   27      -71.087047
   28      -71.083891
   29      -71.079072
   30      -71.076854
   31      -71.070860
   32      -71.060334
   33      -71.051960
   34      -70.940792
   35      -70.928876
   36      -70.912172
   37      -70.901983
   38      -70.896683
   39      -70.891993
   40      -70.872027
   41      -70.859824
   42      -70.829672
   43      -70.824747
   44      -70.821464
   45      -70.819611
   46      -70.691687
   47      -70.690036
   48      -70.570970
   49      -12.175642
   50       -8.487250
   51       -8.357563
   52       -7.487279
   53       -7.124353
   54       -6.343789
   55       -5.991312
   56       -5.989688
   57       -5.906909
   58       -5.813433
   59       -5.735453
   60       -5.611133
   61       -5.545883
   62       -5.541061
   63       -5.468303
   64       -5.459490
   65       -5.332982
   66       -5.172283
   67       -5.125984
   68       -5.121228
   69       -5.091439
   70       -5.057461
   71       -5.046115
   72       -4.972453
   73       -4.925495
   74       -4.854162
   75       -4.774105
   76       -4.753082
   77       -4.744011
   78       -4.719070
   79       -4.624745
   80       -4.577422
   81       -4.522548
   82       -4.520131
   83       -4.472309
   84       -4.463655
   85       -4.451402
   86       -4.401072
   87       -4.354950
   88       -4.216355
   89       -4.136241
   90       -4.135124
   91       -4.071876
   92       -4.069867
   93       -4.002027
   94       -3.991999
   95       -3.928137
   96       -3.898661
   97       -3.890903
   98       -3.882681
   99       -3.840822
  100       -3.816139
  101       -3.812634
  102       -3.791820
  103       -3.724578
  104       -3.695366
  105       -3.668318
  106       -3.578438
  107       -3.549688
  108       -3.541486
  109       -3.527467
  110       -3.436516
  111       -3.419825
  112       -3.365592
  113       -3.354079
  114       -3.309591
  115       -3.261119
  116       -3.251250
  117       -3.250003
  118       -3.214210
  119       -3.202701
  120       -3.131719
  121       -3.108332
  122       -3.083317
  123       -3.028680
  124       -2.995196
  125       -2.915205
  126       -2.909232
  127       -2.844000
  128       -2.759633
  129       -2.740272
  130       -2.728625
  131       -2.679243
  132       -2.619682
  133       -2.613978
  134       -2.416884
  135       -1.865436
  136       -1.658341
  137       -1.363436
  138       -1.068927
  139       -1.053194
  140       -0.736035
  141       -0.050358
  142        0.034731
  143        0.526401
  144        0.918805
  145        1.810799
  146        2.007428
  147        2.670307
  148        3.011559
  149        4.088325
  150        4.898955
  151        5.045394
  152        5.225887
  153        5.637492
  154        5.701512
  155        5.954630
  156        6.063320
  157        6.090664
  158        6.260949
  159        6.398856
  160        6.528921
  161        6.593035
  162        6.739155
  163        6.771648
  164        7.290448
  165        7.291792
  166        7.609110
  167        7.763172
  168        7.949476
 
  0.0000000E+00  0.1666667E+00  0.0000000E+00  0.1111111E+00
    1      -71.900454
    2      -71.847529
    3      -71.843625
    4      -71.545830
    5      -71.544363
    6      -71.530571
    7      -71.509215
    8      -71.495640
    9      -71.493146
   10      -71.223208
   11      -71.209059
   12      -71.207858
   13      -71.194380
   14      -71.180108
   15      -71.179436
   16      -71.156120
   17      -71.146152
   18      -71.145881
   19      -71.141765
   20      -71.139556
   21      -71.137418
   22      -71.137259
   23      -71.117672
   24      -71.115075
   25      -71.110546
   26      -71.085256
   27      -71.083773
   28      -71.078110
   29      -71.074729
   30      -71.072965
   31      -71.061463
   32      -71.049690
   33      -71.045039
   34      -70.953471
   35      -70.951447
   36      -70.939150
   37      -70.884149
   38      -70.883537
   39      -70.878546
   40      -70.858088
   41      -70.853180
   42      -70.831911
   43      -70.823792
   44      -70.820307
   45      -70.819999
   46      -70.689816
   47      -70.689358
   48      -70.571057
   49      -12.382682
   50      -10.031127
   51       -8.541937
   52       -6.940475
   53       -6.529123
   54       -6.368776
   55       -6.327014
   56       -6.288389
   57       -6.155097
   58       -6.095442
   59       -6.085672
   60       -5.974864
   61       -5.927532
   62       -5.883535
   63       -5.585867
   64       -5.564779
   65       -5.533558
   66       -5.506756
   67       -5.469670
   68       -5.461549
   69       -5.260498
   70       -5.241112
   71       -5.159861
   72       -5.006552
   73       -4.990966
   74       -4.674239
   75       -4.619084
   76       -4.579732
   77       -4.527968
   78       -4.407179
   79       -4.349164
   80       -4.347355
   81       -4.308873
   82       -4.288149
   83       -4.245591
   84       -4.228636
   85       -4.205300
   86       -4.148382
   87       -4.131146
   88       -4.112153
   89       -4.076757
   90       -4.042874
   91       -4.009609
   92       -3.986320
   93       -3.960108
   94       -3.918456
   95       -3.884323
   96       -3.881592
   97       -3.791620
   98       -3.787657
   99       -3.730547
  100       -3.700463
  101       -3.497532
  102       -3.490696
  103       -3.423903
  104       -3.397201
  105       -3.353554
  106       -3.313065
  107       -3.268529
  108       -3.261225
  109       -3.221838
  110       -3.113267
  111       -3.106717
  112       -3.061645
  113       -3.001455
  114       -2.981858
  115       -2.940236
  116       -2.924390
  117       -2.879705
  118       -2.866953
  119       -2.833802
  120       -2.827754
  121       -2.810062
  122       -2.767109
  123       -2.764935
  124       -2.746359
  125       -2.729431
  126       -2.724281
  127       -2.703427
  128       -2.690753
  129       -2.659049
  130       -2.586205
  131       -2.576548
  132       -2.524738
  133       -2.514246
  134       -1.980053
  135       -1.713278
  136       -1.673403
  137       -1.442617
  138       -1.068509
  139       -1.030697
  140       -0.899753
  141       -0.249284
  142       -0.128647
  143        0.193827
  144        0.768834
  145        0.975268
  146        1.245634
  147        1.756753
  148        1.850455
  149        3.045174
  150        3.545156
  151        3.654777
  152        3.839030
  153        4.134092
  154        4.453702
  155        4.724099
  156        4.812322
  157        4.894962
  158        5.190943
  159        5.378400
  160        6.085788
  161        6.204661
  162        6.238685
  163        6.530376
  164        6.761223
  165        7.418656
  166        7.776814
  167        8.035045
  168        8.188217
 
  0.3333333E+00  0.1666667E+00  0.0000000E+00  0.1111111E+00
    1      -71.894389
    2      -71.852764
    3      -71.843815
    4      -71.544856
    5      -71.540544
    6      -71.527108
    7      -71.513194
    8      -71.499609
    9      -71.494618
   10      -71.216612
   11      -71.201310
   12      -71.199324
   13      -71.191219
   14      -71.180579
   15      -71.178177
   16      -71.158196
   17      -71.153514
   18      -71.141966
   19      -71.140643
   20      -71.139418
   21      -71.134590
   22      -71.130446
   23      -71.126532
   24      -71.116031
   25      -71.114039
   26      -71.090737
   27      -71.083075
   28      -71.079743
   29      -71.076185
   30      -71.071752
   31      -71.064711
   32      -71.059114
   33      -71.048513
   34      -70.947895
   35      -70.941559
   36      -70.930868
   37      -70.895730
   38      -70.881777
   39      -70.879811
   40      -70.869593
   41      -70.856477
   42      -70.830998
   43      -70.824021
   44      -70.821168
   45      -70.819818
   46      -70.690777
   47      -70.689852
   48      -70.571077
   49      -12.281501
   50       -9.606691
   51       -8.206218
   52       -6.828286
   53       -6.677077
   54       -6.593360
   55       -6.349273
   56       -6.277087
   57       -6.084808
   58       -6.000499
   59       -5.881198
   60       -5.861338
   61       -5.777538
   62       -5.685139
   63       -5.500102
   64       -5.452321
   65       -5.423536
   66       -5.393620
   67       -5.360733
   68       -5.307847
   69       -5.186426
   70       -5.123919
   71       -5.053855
   72       -4.989639
   73       -4.966951
   74       -4.742985
   75       -4.706378
   76       -4.642163
   77       -4.607243
   78       -4.554247
   79       -4.514741
   80       -4.408517
   81       -4.400629
   82       -4.352383
   83       -4.316916
   84       -4.281809
   85       -4.220452
   86       -4.180739
   87       -4.154481
   88       -4.148393
   89       -4.135395
   90       -4.074901
   91       -4.055850
   92       -4.016144
   93       -3.974945
   94       -3.963121
   95       -3.931720
   96       -3.916914
   97       -3.893312
   98       -3.838395
   99       -3.820698
  100       -3.756490
  101       -3.715497
  102       -3.654443
  103       -3.628900
  104       -3.467894
  105       -3.441155
  106       -3.429887
  107       -3.418337
  108       -3.387197
  109       -3.370951
  110       -3.332840
  111       -3.290581
  112       -3.271757
  113       -3.233080
  114       -3.172841
  115       -3.126700
  116       -3.060989
  117       -3.043023
  118       -3.012884
  119       -2.994119
  120       -2.956696
  121       -2.917008
  122       -2.900701
  123       -2.852151
  124       -2.825949
  125       -2.819932
  126       -2.782964
  127       -2.762163
  128       -2.745572
  129       -2.695531
  130       -2.678928
  131       -2.663142
  132       -2.553019
  133       -2.423183
  134       -2.347109
  135       -2.172737
  136       -2.132057
  137       -1.521104
  138       -1.282202
  139       -0.861875
  140       -0.643365
  141        0.123770
  142        0.197937
  143        0.654338
  144        1.031893
  145        1.142751
  146        1.631192
  147        1.945817
  148        2.630427
  149        3.493019
  150        3.953600
  151        4.081707
  152        4.525836
  153        4.786546
  154        4.877751
  155        5.099780
  156        5.294855
  157        5.400847
  158        5.593375
  159        5.985257
  160        6.485542
  161        6.597939
  162        6.824678
  163        6.932417
  164        7.362303
  165        7.813163
  166        7.922216
  167        8.094099
  168        8.292546
 
  0.5000000E+00  0.1666667E+00  0.0000000E+00  0.1111111E+00
    1      -71.885449
    2      -71.860800
    3      -71.843601
    4      -71.543594
    5      -71.534615
    6      -71.522676
    7      -71.517855
    8      -71.505464
    9      -71.495902
   10      -71.207725
   11      -71.192364
   12      -71.188672
   13      -71.182627
   14      -71.179186
   15      -71.177004
   16      -71.169669
   17      -71.157365
   18      -71.150716
   19      -71.141479
   20      -71.133766
   21      -71.132629
   22      -71.128493
   23      -71.119430
   24      -71.118734
   25      -71.112675
   26      -71.098690
   27      -71.084408
   28      -71.082643
   29      -71.079291
   30      -71.073940
   31      -71.069217
   32      -71.062142
   33      -71.053733
   34      -70.938862
   35      -70.927510
   36      -70.917344
   37      -70.907750
   38      -70.893380
   39      -70.882914
   40      -70.875082
   41      -70.861382
   42      -70.829724
   43      -70.824296
   44      -70.822171
   45      -70.819642
   46      -70.691427
   47      -70.690276
   48      -70.571053
   49      -12.177175
   50       -8.796827
   51       -7.761314
   52       -7.549009
   53       -6.880616
   54       -6.737093
   55       -6.321452
   56       -6.165595
   57       -5.909056
   58       -5.776080
   59       -5.666540
   60       -5.596304
   61       -5.554329
   62       -5.476835
   63       -5.407508
   64       -5.341988
   65       -5.274445
   66       -5.209952
   67       -5.189232
   68       -5.126464
   69       -5.107129
   70       -5.025432
   71       -4.955109
   72       -4.931410
   73       -4.900610
   74       -4.875579
   75       -4.839639
   76       -4.786616
   77       -4.743575
   78       -4.703364
   79       -4.677258
   80       -4.596244
   81       -4.569014
   82       -4.541080
   83       -4.467016
   84       -4.450169
   85       -4.410200
   86       -4.378899
   87       -4.284112
   88       -4.262147
   89       -4.201327
   90       -4.171446
   91       -4.111291
   92       -4.078644
   93       -4.053745
   94       -4.011577
   95       -3.965964
   96       -3.958352
   97       -3.931638
   98       -3.876148
   99       -3.824137
  100       -3.818330
  101       -3.776038
  102       -3.744011
  103       -3.680167
  104       -3.646204
  105       -3.624092
  106       -3.616348
  107       -3.553035
  108       -3.530549
  109       -3.488462
  110       -3.424059
  111       -3.393897
  112       -3.348149
  113       -3.311230
  114       -3.272229
  115       -3.243724
  116       -3.220820
  117       -3.197609
  118       -3.142400
  119       -3.096782
  120       -3.082431
  121       -3.037502
  122       -3.015316
  123       -2.942464
  124       -2.923173
  125       -2.873317
  126       -2.858102
  127       -2.809624
  128       -2.786908
  129       -2.779179
  130       -2.735808
  131       -2.710790
  132       -2.692228
  133       -2.675369
  134       -2.390995
  135       -2.243636
  136       -2.100028
  137       -1.809999
  138       -1.355264
  139       -0.900851
  140       -0.280098
  141        0.205870
  142        0.532739
  143        0.898284
  144        1.184952
  145        1.846279
  146        2.191133
  147        2.660518
  148        3.059604
  149        3.393535
  150        4.291009
  151        4.602463
  152        4.730494
  153        5.345897
  154        5.427839
  155        5.518900
  156        5.866142
  157        6.022331
  158        6.248138
  159        6.429029
  160        6.629434
  161        6.838251
  162        7.174973
  163        7.342094
  164        7.390265
  165        7.503766
  166        7.580922
  167        7.760520
  168        8.097434
 
  0.0000000E+00  0.3333333E+00  0.0000000E+00  0.1111111E+00
    1      -71.891777
    2      -71.855643
    3      -71.843333
    4      -71.544743
    5      -71.538539
    6      -71.525583
    7      -71.514923
    8      -71.502648
    9      -71.493892
   10      -71.214265
   11      -71.199224
   12      -71.195501
   13      -71.188321
   14      -71.180872
   15      -71.177739
   16      -71.157513
   17      -71.156046
   18      -71.149480
   19      -71.138087
   20      -71.134967
   21      -71.134117
   22      -71.132687
   23      -71.125516
   24      -71.115502
   25      -71.114558
   26      -71.091534
   27      -71.083773
   28      -71.080265
   29      -71.076703
   30      -71.075178
   31      -71.064732
   32      -71.062022
   33      -71.049181
   34      -70.945745
   35      -70.938357
   36      -70.926063
   37      -70.894635
   38      -70.891810
   39      -70.875775
   40      -70.874931
   41      -70.857284
   42      -70.830641
   43      -70.824366
   44      -70.821024
   45      -70.819841
   46      -70.691231
   47      -70.689934
   48      -70.571050
   49      -12.246465
   50       -9.399897
   51       -8.055164
   52       -7.285344
   53       -6.757048
   54       -6.440844
   55       -6.129069
   56       -6.127867
   57       -6.007072
   58       -5.941541
   59       -5.894082
   60       -5.841158
   61       -5.721952
   62       -5.670893
   63       -5.497794
   64       -5.393877
   65       -5.385244
   66       -5.344095
   67       -5.316974
   68       -5.283625
   69       -5.154583
   70       -5.066890
   71       -5.014652
   72       -4.960579
   73       -4.951133
   74       -4.818940
   75       -4.713064
   76       -4.706036
   77       -4.635806
   78       -4.582628
   79       -4.559781
   80       -4.468780
   81       -4.454494
   82       -4.420096
   83       -4.332889
   84       -4.325366
   85       -4.278741
   86       -4.215277
   87       -4.213563
   88       -4.179027
   89       -4.110095
   90       -4.089021
   91       -4.063643
   92       -4.024378
   93       -3.975382
   94       -3.953125
   95       -3.933149
   96       -3.900529
   97       -3.884742
   98       -3.868735
   99       -3.836529
  100       -3.791098
  101       -3.758542
  102       -3.691651
  103       -3.594052
  104       -3.579222
  105       -3.556923
  106       -3.515587
  107       -3.488024
  108       -3.442189
  109       -3.373899
  110       -3.369696
  111       -3.340016
  112       -3.307374
  113       -3.290123
  114       -3.204894
  115       -3.166270
  116       -3.115454
  117       -3.114660
  118       -3.076258
  119       -3.042837
  120       -3.016621
  121       -3.012536
  122       -2.965552
  123       -2.945752
  124       -2.943310
  125       -2.896298
  126       -2.828624
  127       -2.813952
  128       -2.742567
  129       -2.720375
  130       -2.714957
  131       -2.673215
  132       -2.615289
  133       -2.609622
  134       -2.393686
  135       -1.953482
  136       -1.653063
  137       -1.347231
  138       -1.071588
  139       -0.968387
  140       -0.786904
  141       -0.189711
  142       -0.117627
  143        0.348162
  144        0.973096
  145        1.622575
  146        1.891483
  147        2.374163
  148        3.263529
  149        3.379592
  150        4.142976
  151        4.313409
  152        4.352382
  153        4.880456
  154        5.143724
  155        5.371247