 vasp.5.3.5 31Mar14 (build Oct 26 2016 13:29:44) complex                        
  
 executed on  GRP7IFC17NORMALVTST date 2017.07.12  15:59:46
 running on   32 total cores
 distrk:  each k-point on   32 cores,    1 groups
 distr:  one band on NCORES_PER_BAND=   8 cores,    4 groups


--------------------------------------------------------------------------------------------------------


 INCAR:
 POTCAR:    PAW_PBE Cu_pv 06Sep2000               
 POTCAR:    PAW_PBE C 08Apr2002                   
 POTCAR:    PAW_PBE Cu_pv 06Sep2000               
   VRHFIN =Cu: d10 p1                                                           
   LEXCH  = PE                                                                  
   EATOM  =  4120.1201 eV,  302.8203 Ry                                         
                                                                                
   TITEL  = PAW_PBE Cu_pv 06Sep2000                                             
   LULTRA =        F    use ultrasoft PP ?                                      
   IUNSCR =        1    unscreen: 0-lin 1-nonlin 2-no                           
   RPACOR =    1.500    partial core radius                                     
   POMASS =   63.546; ZVAL   =   17.000    mass and valenz                      
   RCORE  =    2.000    outmost cutoff radius                                   
   RWIGS  =    2.000; RWIGS  =    1.058    wigner-seitz radius (au A)           
   ENMAX  =  368.648; ENMIN  =  276.486 eV                                      
   RCLOC  =    1.304    cutoff for local pot                                    
   LCOR   =        T    correct aug charges                                     
   LPAW   =        T    paw PP                                                  
   EAUG   =  758.233                                                            
   DEXC   =    0.000                                                            
   RMAX   =    2.046    core radius for proj-oper                               
   RAUG   =    1.300    factor for augmentation sphere                          
   RDEP   =    2.025    radius for radial grids                                 
   RDEPT  =    1.558    core radius for aug-charge                              
                                                                                
   Atomic configuration                                                         
    8 entries                                                                   
     n  l   j            E        occ.                                          
     1  0  0.50     -8850.2467   2.0000                                         
     2  0  0.50     -1062.3498   2.0000                                         
     2  1  1.50      -916.8226   6.0000                                         
     3  0  0.50      -114.6929   2.0000                                         
     3  1  1.50       -72.1325   6.0000                                         
     3  2  2.50        -5.0394  10.0000                                         
     4  0  0.50        -4.6097   1.0000                                         
     4  3  2.50        -1.3606   0.0000                                         
   Description                                                                  
     l       E           TYP  RCUT    TYP  RCUT                                 
     1    -72.1324777     23  1.700                                             
     1     -1.3605826     23  1.700                                             
     2     -5.0393776     23  2.000                                             
     2     -6.3999602     23  2.000                                             
     0     -4.6097062     23  1.800                                             
     0     14.1620818     23  1.800                                             
  local pseudopotential read in
  partial core-charges read in
  partial kinetic energy density read in
  atomic valenz-charges read in
  non local Contribution for L=           1  read in
    real space projection operators read in
  non local Contribution for L=           1  read in
    real space projection operators read in
  non local Contribution for L=           2  read in
    real space projection operators read in
  non local Contribution for L=           2  read in
    real space projection operators read in
  non local Contribution for L=           0  read in
    real space projection operators read in
  non local Contribution for L=           0  read in
    real space projection operators read in
    PAW grid and wavefunctions read in
 
   number of l-projection  operators is LMAX  =           6
   number of lm-projection operators is LMMAX =          18
 
 POTCAR:    PAW_PBE C 08Apr2002                   
   VRHFIN =C: s2p2                                                              
   LEXCH  = PE                                                                  
   EATOM  =   147.1560 eV,   10.8157 Ry                                         
                                                                                
   TITEL  = PAW_PBE C 08Apr2002                                                 
   LULTRA =        F    use ultrasoft PP ?                                      
   IUNSCR =        1    unscreen: 0-lin 1-nonlin 2-no                           
   RPACOR =    1.200    partial core radius                                     
   POMASS =   12.011; ZVAL   =    4.000    mass and valenz                      
   RCORE  =    1.500    outmost cutoff radius                                   
   RWIGS  =    1.630; RWIGS  =    0.863    wigner-seitz radius (au A)           
   ENMAX  =  400.000; ENMIN  =  300.000 eV                                      
   ICORE  =        2    local potential                                         
   LCOR   =        T    correct aug charges                                     
   LPAW   =        T    paw PP                                                  
   EAUG   =  644.873                                                            
   DEXC   =    0.000                                                            
   RMAX   =    1.529    core radius for proj-oper                               
   RAUG   =    1.300    factor for augmentation sphere                          
   RDEP   =    1.501    radius for radial grids                                 
   RDEPT  =    1.300    core radius for aug-charge                              
                                                                                
   Atomic configuration                                                         
    4 entries                                                                   
     n  l   j            E        occ.                                          
     1  0  0.50      -273.3789   2.0000                                         
     2  0  0.50       -13.7508   2.0000                                         
     2  1  0.50        -5.2854   2.0000                                         
     3  2  1.50        -5.4423   0.0000                                         
   Description                                                                  
     l       E           TYP  RCUT    TYP  RCUT                                 
     0    -13.7508458     23  1.200                                             
     0     -8.2022199     23  1.200                                             
     1     -5.2854383     23  1.500                                             
     1     34.0145650     23  1.500                                             
     2     -5.4423304      7  1.500                                             
  local pseudopotential read in
  partial core-charges read in
  partial kinetic energy density read in
  atomic valenz-charges read in
  non local Contribution for L=           0  read in
    real space projection operators read in
  non local Contribution for L=           0  read in
    real space projection operators read in
  non local Contribution for L=           1  read in
    real space projection operators read in
  non local Contribution for L=           1  read in
    real space projection operators read in
    PAW grid and wavefunctions read in
 
   number of l-projection  operators is LMAX  =           4
   number of lm-projection operators is LMMAX =           8
 

 ----------------------------------------------------------------------------- 
|                                                                             |
|  ADVICE TO THIS USER RUNNING 'VASP/VAMP'   (HEAR YOUR MASTER'S VOICE ...):  |
|                                                                             |
|      You have a (more or less) 'large supercell' and for larger cells       |
|      it might be more efficient to use real space projection opertators     |
|      So try LREAL= Auto  in the INCAR   file.                               |
|      Mind: At the moment your POTCAR file does not contain real space       |
|       projectors, and has to be modified,  BUT if you                       |
|      want to do an extremely  accurate calculation you might also keep the  |
|      reciprocal projection scheme          (i.e. LREAL=.FALSE.)             |
|                                                                             |
 ----------------------------------------------------------------------------- 

  PAW_PBE Cu_pv 06Sep2000               :
 energy of atom  1       EATOM=-4120.1201
 kinetic energy error for atom=    0.0996 (will be added to EATOM!!)
  PAW_PBE C 08Apr2002                   :
 energy of atom  2       EATOM= -147.1560
 kinetic energy error for atom=    0.0288 (will be added to EATOM!!)
 
 
 POSCAR: test                                    
  positions in direct lattice
  No initial velocities read in
 exchange correlation table for  LEXCH =        8
   RHO(1)=    0.500       N(1)  =     2000
   RHO(2)=  100.500       N(2)  =     4000

 VTST: version 3.1, (03/28/14)

 CHAIN: initializing optimizer
 
 OPT: Using VASP Conjugate-Gradient optimizer
 CHAIN: Read ICHAIN            0
 
 POSCAR: test                                    
  positions in direct lattice
  No initial velocities read in
 


--------------------------------------------------------------------------------------------------------


 ion  position               nearest neighbor table
   1  0.000  0.000  0.000-   7 2.51   6 2.51   5 2.51   3 2.51   3 2.51   4 2.51   4 2.51   2 2.51
                             2 2.51
   2  0.000  0.500  0.000-   8 2.51   5 2.51   6 2.51   4 2.51   4 2.51   3 2.51   3 2.51   1 2.51
                             1 2.51
   3  0.500  0.000  0.000-   8 2.51   5 2.51   7 2.51   1 2.51   1 2.51   2 2.51   2 2.51   4 2.51
                             4 2.51
   4  0.500  0.500  0.000-   6 2.51   7 2.51   2 2.51   2 2.51   1 2.51   1 2.51   3 2.51   3 2.51
                             8 2.51
   5  0.167  0.167  0.078-   3 2.51   2 2.51   7 2.51   6 2.51   1 2.51   8 2.51   8 2.51   7 2.51
                             6 2.51  10 2.53   9 2.53  11 2.53
   6  0.167  0.667  0.078-   1 2.51   4 2.51   8 2.51   7 2.51   5 2.51   2 2.51   8 2.51   7 2.51
                             5 2.51   9 2.53  10 2.53  12 2.53
   7  0.667  0.167  0.078-   1 2.51   4 2.51   5 2.51   6 2.51   8 2.51   3 2.51   5 2.51   6 2.51
                             8 2.51  12 2.52  11 2.52   9 2.53
   8  0.667  0.667  0.078-   2 2.51   3 2.51   6 2.51   7 2.51   5 2.51   5 2.51   4 2.51   6 2.51
                             7 2.51  11 2.52  12 2.52  10 2.53
   9  0.332  0.334  0.157-  11 2.51  12 2.51  10 2.51  10 2.51  12 2.51  11 2.51   5 2.53   6 2.53
                             7 2.53
  10  0.332  0.834  0.157-  12 2.51  11 2.51   9 2.51   9 2.51  12 2.51  11 2.51   5 2.53   6 2.53
                             8 2.53
  11  0.832  0.334  0.157-   9 2.51  10 2.51  12 2.51  12 2.51   9 2.51  10 2.51   8 2.52   7 2.52
                             5 2.53
  12  0.832  0.834  0.157-  10 2.51   9 2.51  11 2.51  11 2.51   9 2.51  10 2.51   7 2.52   8 2.52
                             6 2.53
  13  0.985  0.008  0.239-  17 1.93  15 2.44  16 2.44  14 2.51  14 2.51
  14  0.985  0.508  0.239-  17 1.93  16 2.44  15 2.44  13 2.51  13 2.51
  15  0.504  0.998  0.237-  17 1.86  13 2.44  14 2.44  16 2.51  16 2.51
  16  0.504  0.498  0.237-  14 2.44  13 2.44  15 2.51  15 2.51
  17  0.183  0.158  0.285-  15 1.86  14 1.93  13 1.93
 
  LATTYP: Found a hexagonal cell.
 ALAT       =     5.0196948051
 C/A-ratio  =     5.2209194531
  
  Lattice vectors:
  
 A1 = (   2.5098474025,  -4.3471832205,   0.0000000000)
 A2 = (  -5.0196948051,   0.0000000000,   0.0000000000)
 A3 = (   0.0000000000,   0.0000000000, -26.2074222565)


Analysis of symmetry for initial positions (statically):
=====================================================================
 Subroutine PRICEL returns:
 Original cell was already a primitive cell.
 

 Routine SETGRP: Setting up the symmetry group for a 
 hexagonal supercell.


 Subroutine GETGRP returns: Found  2 space group operations
 (whereof  1 operations were pure point group operations)
 out of a pool of 24 trial point group operations.


The static configuration has the point symmetry C_1 .
 The point group associated with its full space group is C_1h.


Analysis of symmetry for dynamics (positions and initial velocities):
=====================================================================
 Subroutine PRICEL returns:
 Original cell was already a primitive cell.
 

 Routine SETGRP: Setting up the symmetry group for a 
 hexagonal supercell.


 Subroutine GETGRP returns: Found  2 space group operations
 (whereof  1 operations were pure point group operations)
 out of a pool of 24 trial point group operations.


The dynamic configuration has the point symmetry C_1 .
 The point group associated with its full space group is C_1h.


Analysis of constrained symmetry for selective dynamics:
=====================================================================
 Subroutine PRICEL returns:
 Original cell was already a primitive cell.
 

 Routine SETGRP: Setting up the symmetry group for a 
 hexagonal supercell.


 Subroutine GETGRP returns: Found  2 space group operations
 (whereof  1 operations were pure point group operations)
 out of a pool of 24 trial point group operations.


The constrained configuration has the point symmetry C_1 .
 The point group associated with its full space group is C_1h.
 
 
 KPOINTS: A                                       

Automatic generation of k-mesh.
Space group operators:
 irot       det(A)        alpha          n_x          n_y          n_z        tau_x        tau_y        tau_z
    1     1.000000     0.000001     1.000000     0.000000     0.000000     0.000000     0.000000     0.000000
    2    -1.000000   179.999999    -0.500000    -0.866025     0.000000     0.000000    -0.500000     0.000000
 
 Subroutine IBZKPT returns following result:
 ===========================================
 
 Found     13 irreducible k-points:
 
 Following reciprocal coordinates:
            Coordinates               Weight
  0.000000  0.000000  0.000000      1.000000
  0.166667 -0.000000  0.000000      2.000000
  0.333333  0.000000  0.000000      2.000000
  0.500000 -0.000000  0.000000      1.000000
  0.000000  0.166667  0.000000      4.000000
  0.333333  0.166667  0.000000      4.000000
  0.500000  0.166667  0.000000      4.000000
  0.000000  0.333333  0.000000      4.000000
  0.166667  0.333333  0.000000      2.000000
  0.500000  0.333333  0.000000      4.000000
 -0.333333  0.333333  0.000000      2.000000
  0.000000  0.500000  0.000000      2.000000
  0.166667  0.500000  0.000000      4.000000
 
 Following cartesian coordinates:
            Coordinates               Weight
  0.000000  0.000000  0.000000      1.000000
  0.033203 -0.019170  0.000000      2.000000
  0.066405 -0.038339  0.000000      2.000000
  0.099608 -0.057509  0.000000      1.000000
  0.000000  0.038339  0.000000      4.000000
  0.066405 -0.000000  0.000000      4.000000
  0.099608 -0.019170  0.000000      4.000000
  0.000000  0.076678  0.000000      4.000000
  0.033203  0.057509  0.000000      2.000000
  0.099608  0.019170  0.000000      4.000000
 -0.066405  0.115017  0.000000      2.000000
  0.000000  0.115017  0.000000      2.000000
  0.033203  0.095848  0.000000      4.000000
 


--------------------------------------------------------------------------------------------------------




 Dimension of arrays:
   k-points           NKPTS =     13   k-points in BZ     NKDIM =     13   number of bands    NBANDS=    168
   number of dos      NEDOS =    301   number of ions     NIONS =     17
   non local maximal  LDIM  =      6   non local SUM 2l+1 LMDIM =     18
   total plane-waves  NPLWV = 233280
   max r-space proj   IRMAX =      1   max aug-charges    IRDMAX=   8246
   dimension x,y,z NGX =    36 NGY =   36 NGZ =  180
   dimension x,y,z NGXF=    72 NGYF=   72 NGZF=  360
   support grid    NGXF=    72 NGYF=   72 NGZF=  360
   ions per type =              16   1
 NGX,Y,Z   is equivalent  to a cutoff of  11.92, 11.92, 11.42 a.u.
 NGXF,Y,Z  is equivalent  to a cutoff of  23.85, 23.85, 22.84 a.u.


 I would recommend the setting:
   dimension x,y,z NGX =    33 NGY =   33 NGZ =  171
 SYSTEM =  unknown system                          
 POSCAR =  test                                    

 Startparameter for this run:
   NWRITE =      2    write-flag & timer
   PREC   = accura    normal or accurate (medium, high low for compatibility)
   ISTART =      0    job   : 0-new  1-cont  2-samecut
   ICHARG =      2    charge: 1-file 2-atom 10-const
   ISPIN  =      1    spin polarized calculation?
   LNONCOLLINEAR =      F non collinear calculations
   LSORBIT =      F    spin-orbit coupling
   INIWAV =      1    electr: 0-lowe 1-rand  2-diag
   LASPH  =      T    aspherical Exc in radial PAW
   METAGGA=      F    non-selfconsistent MetaGGA calc.

 Electronic Relaxation 1
   ENCUT  =  400.0 eV  29.40 Ry    5.42 a.u.   8.19  8.19 42.74*2*pi/ulx,y,z
   ENINI  =  400.0     initial cutoff
   ENAUG  =  758.2 eV  augmentation charge cutoff
   NELM   =     60;   NELMIN=  5; NELMDL= -5     # of ELM steps 
   EDIFF  = 0.1E-04   stopping-criterion for ELM
   LREAL  =      F    real-space projection
   NLSPLINE    = F    spline interpolate recip. space projectors
   LCOMPAT=      F    compatible to vasp.4.4
   GGA_COMPAT  = T    GGA compatible to vasp.4.4-vasp.4.6
   LMAXPAW     = -100 max onsite density
   LMAXMIX     =    2 max onsite mixed and CHGCAR
   VOSKOWN=      0    Vosko Wilk Nusair interpolation
   ROPT   =    0.00000   0.00000
 Ionic relaxation
   EDIFFG = 0.1E-03   stopping-criterion for IOM
   NSW    =    150    number of steps for IOM
   NBLOCK =      1;   KBLOCK =    150    inner block; outer block 
   IBRION =      2    ionic relax: 0-MD 1-quasi-New 2-CG
   NFREE  =      1    steps in history (QN), initial steepest desc. (CG)
   ISIF   =      2    stress and relaxation
   IWAVPR =     11    prediction:  0-non 1-charg 2-wave 3-comb
   ISYM   =      2    0-nonsym 1-usesym 2-fastsym
   LCORR  =      T    Harris-Foulkes like correction to forces

   POTIM  = 0.5000    time-step for ionic-motion
   TEIN   =    0.0    initial temperature
   TEBEG  =    0.0;   TEEND  =   0.0 temperature during run
   SMASS  =  -3.00    Nose mass-parameter (am)
   estimated Nose-frequenzy (Omega)   =  0.10E-29 period in steps =****** mass=  -0.576E-27a.u.
   SCALEE = 1.0000    scale energy and forces
   NPACO  =    256;   APACO  = 16.0  distance and # of slots for P.C.
   PSTRESS=    0.0 pullay stress

  Mass of Ions in am
   POMASS =  63.55 12.01
  Ionic Valenz
   ZVAL   =  17.00  4.00
  Atomic Wigner-Seitz radii
   RWIGS  =  -1.00 -1.00
  virtual crystal weights 
   VCA    =   1.00  1.00
   NELECT =     276.0000    total number of electrons
   NUPDOWN=      -1.0000    fix difference up-down

 DOS related values:
   EMIN   =  10.00;   EMAX   =-10.00  energy-range for DOS
   EFERMI =   0.00
   ISMEAR =     0;   SIGMA  =   0.10  broadening in eV -4-tet -1-fermi 0-gaus

 Electronic relaxation 2 (details)
   IALGO  =     38    algorithm
   LDIAG  =      T    sub-space diagonalisation (order eigenvalues)
   LSUBROT=      F    optimize rotation matrix (better conditioning)
   TURBO    =      0    0=normal 1=particle mesh
   IRESTART =      0    0=no restart 2=restart with 2 vectors
   NREBOOT  =      0    no. of reboots
   NMIN     =      0    reboot dimension
   EREF     =   0.00    reference energy to select bands
   IMIX   =      4    mixing-type and parameters
     AMIX     =   0.40;   BMIX     =  1.00
     AMIX_MAG =   1.60;   BMIX_MAG =  1.00
     AMIN     =   0.10
     WC   =   100.;   INIMIX=   1;  MIXPRE=   1;  MAXMIX= -45

 Intra band minimization:
   WEIMIN = 0.0010     energy-eigenvalue tresh-hold
   EBREAK =  0.15E-07  absolut break condition
   DEPER  =   0.30     relativ break condition  

   TIME   =   0.40     timestep for ELM

  volume/ion in A,a.u.               =      33.64       227.02
  Fermi-wavevector in a.u.,A,eV,Ry     =   1.284127  2.426648 22.435767  1.648982
  Thomas-Fermi vector in A             =   2.416339
 
 Write flags
   LWAVE  =      F    write WAVECAR
   LCHARG =      F    write CHGCAR
   LVTOT  =      F    write LOCPOT, total local potential
   LVHAR  =      F    write LOCPOT, Hartree potential only
   LELF   =      F    write electronic localiz. function (ELF)
   LORBIT =     10    0 simple, 1 ext, 2 COOP (PROOUT)


 Dipole corrections
   LMONO  =      F    monopole corrections only (constant potential shift)
   LDIPOL =      T    correct potential (dipole corrections)
   IDIPOL =      3    1-x, 2-y, 3-z, 4-all directions 
   EPSILON=  1.0000000 bulk dielectric constant

 Exchange correlation treatment:
   GGA     =    --    GGA type
   LEXCH   =     8    internal setting for exchange type
   VOSKOWN=      0    Vosko Wilk Nusair interpolation
   LHFCALC =     F    Hartree Fock is set to
   LHFONE  =     F    Hartree Fock one center treatment
   AEXX    =    0.0000 exact exchange contribution

 Linear response parameters
   LEPSILON=     F    determine dielectric tensor
   LRPA    =     F    only Hartree local field effects (RPA)
   LNABLA  =     F    use nabla operator in PAW spheres
   LVEL    =     F    velocity operator in full k-point grid
   LINTERFAST=   F  fast interpolation
   KINTER  =     0    interpolate to denser k-point grid
   CSHIFT  =0.1000    complex shift for real part using Kramers Kronig
   OMEGAMAX=  -1.0    maximum frequency
   DEG_THRESHOLD= 0.2000000E-02 threshold for treating states as degnerate
   RTIME   =    0.100 relaxation time in fs

 Orbital magnetization related:
   ORBITALMAG=     F  switch on orbital magnetization
   LCHIMAG   =     F  perturbation theory with respect to B field
   DQ        =  0.001000  dq finite difference perturbation B field



--------------------------------------------------------------------------------------------------------


 conjugate gradient relaxation of ions
   using selective dynamics as specified on POSCAR
 charge density and potential will be updated during run
 non-spin polarized calculation
 Variant of blocked Davidson
 Davidson routine will perform the subspace rotation
 perform sub-space diagonalisation
    after iterative eigenvector-optimisation
 modified Broyden-mixing scheme, WC =      100.0
 initial mixing is a Kerker type mixing with AMIX =  0.4000 and BMIX =      1.0000
 Hartree-type preconditioning will be used
 using additional bands           30
 reciprocal scheme for non local part
 use partial core corrections
 calculate Harris-corrections to forces 
   (improved forces if not selfconsistent)
 use gradient corrections 
 use of overlap-Matrix (Vanderbilt PP)
 Gauss-broadening in eV      SIGMA  =   0.10


--------------------------------------------------------------------------------------------------------


  energy-cutoff  :      400.00
  volume of cell :      571.89
      direct lattice vectors                 reciprocal lattice vectors
     5.019694805  0.000000000  0.000000000     0.199215299 -0.115017006  0.000000000
     2.509847403  4.347183220  0.000000000     0.000000000  0.230034013  0.000000000
     0.000000000  0.000000000 26.207422256     0.000000000  0.000000000  0.038157129

  length of vectors
     5.019694805  5.019694805 26.207422256     0.230034013  0.230034013  0.038157129


 
 k-points in units of 2pi/SCALE and weight: A                                       
   0.00000000  0.00000000  0.00000000       0.028
   0.03320255 -0.01916950  0.00000000       0.056
   0.06640510 -0.03833900  0.00000000       0.056
   0.09960765 -0.05750850  0.00000000       0.028
   0.00000000  0.03833900  0.00000000       0.111
   0.06640510 -0.00000000  0.00000000       0.111
   0.09960765 -0.01916950  0.00000000       0.111
   0.00000000  0.07667800  0.00000000       0.111
   0.03320255  0.05750850  0.00000000       0.056
   0.09960765  0.01916950  0.00000000       0.111
  -0.06640510  0.11501701  0.00000000       0.056
   0.00000000  0.11501701  0.00000000       0.056
   0.03320255  0.09584751  0.00000000       0.111
 
 k-points in reciprocal lattice and weights: A                                       
   0.00000000  0.00000000  0.00000000       0.028
   0.16666667 -0.00000000  0.00000000       0.056
   0.33333333  0.00000000  0.00000000       0.056
   0.50000000 -0.00000000  0.00000000       0.028
   0.00000000  0.16666667  0.00000000       0.111
   0.33333333  0.16666667  0.00000000       0.111
   0.50000000  0.16666667  0.00000000       0.111
   0.00000000  0.33333333  0.00000000       0.111
   0.16666667  0.33333333  0.00000000       0.056
   0.50000000  0.33333333  0.00000000       0.111
  -0.33333333  0.33333333  0.00000000       0.056
   0.00000000  0.50000000  0.00000000       0.056
   0.16666667  0.50000000  0.00000000       0.111
 
 position of ions in fractional coordinates (direct lattice) 
   0.00000000  0.00000000  0.00000000
   0.00000000  0.50000000  0.00000000
   0.50000000  0.00000000  0.00000000
   0.50000000  0.50000000  0.00000000
   0.16666667  0.16666667  0.07819471
   0.16666667  0.66666669  0.07819471
   0.66666669  0.16666667  0.07819471
   0.66666669  0.66666669  0.07819471
   0.33150195  0.33424904  0.15728548
   0.33150195  0.83424907  0.15728548
   0.83182595  0.33408705  0.15702669
   0.83182595  0.83408708  0.15702669
   0.98494900  0.00752550  0.23928406
   0.98494900  0.50752550  0.23928406
   0.50383311  0.99808344  0.23745072
   0.50383311  0.49808344  0.23745072
   0.18349913  0.15825044  0.28461970
 
 position of ions in cartesian coordinates  (Angst):
   0.00000000  0.00000000  0.00000000
   1.25492370  2.17359161  0.00000000
   2.50984740  0.00000000  0.00000000
   3.76477110  2.17359161  0.00000000
   1.25492374  0.72453056  2.04928173
   2.50984748  2.89812224  2.04928173
   3.76477122  0.72453056  2.04928173
   5.01969496  2.89812224  2.04928173
   2.50295269  1.45304182  4.12204706
   3.75787647  3.62663356  4.12204706
   5.01401993  1.45233763  4.11526471
   6.26894371  3.62592937  4.11526471
   4.96303125  0.03271472  6.27101847
   6.21795495  2.20630633  6.27101847
   5.03412560  4.33885160  6.22297135
   3.77920189  2.16525999  6.22297135
   1.31829410  0.68794367  7.45914853
 


--------------------------------------------------------------------------------------------------------


 k-point  1 :   0.0000 0.0000 0.0000  plane waves:   10399
 k-point  2 :   0.1667-0.0000 0.0000  plane waves:   10358
 k-point  3 :   0.3333 0.0000 0.0000  plane waves:   10412
 k-point  4 :   0.5000-0.0000 0.0000  plane waves:   10390
 k-point  5 :   0.0000 0.1667 0.0000  plane waves:   10358
 k-point  6 :   0.3333 0.1667 0.0000  plane waves:   10394
 k-point  7 :   0.5000 0.1667 0.0000  plane waves:   10385
 k-point  8 :   0.0000 0.3333 0.0000  plane waves:   10412
 k-point  9 :   0.1667 0.3333 0.0000  plane waves:   10394
 k-point 10 :   0.5000 0.3333 0.0000  plane waves:   10385
 k-point 11 :  -0.3333 0.3333 0.0000  plane waves:   10356
 k-point 12 :   0.0000 0.5000 0.0000  plane waves:   10390
 k-point 13 :   0.1667 0.5000 0.0000  plane waves:   10385

 maximum and minimum number of plane-waves per node :      1320     1280

 maximum number of plane-waves:     10412
 maximum index in each direction: 
   IXMAX=    8   IYMAX=    8   IZMAX=   42
   IXMIN=   -8   IYMIN=   -8   IZMIN=  -42

 NGX is ok and might be reduce to  34
 NGY is ok and might be reduce to  34
 NGZ is ok and might be reduce to 170

 parallel 3D FFT for wavefunctions:
    minimum data exchange during FFTs selected (reduces bandwidth)
 parallel 3D FFT for charge:
    minimum data exchange during FFTs selected (reduces bandwidth)


 total amount of memory used by VASP on root node    56266. kBytes
========================================================================

   base      :      30000. kBytes
   nonl-proj :       5268. kBytes
   fftplans  :       3436. kBytes
   grid      :       5670. kBytes
   one-center:         46. kBytes
   wavefun   :      11846. kBytes
 
     INWAV:  cpu time    0.00: real time    0.00
 Broyden mixing: mesh for mixing (old mesh)
   NGX = 17   NGY = 17   NGZ = 85
  (NGX  = 72   NGY  = 72   NGZ  =360)
  gives a total of  24565 points

 initial charge density was supplied:
 charge density of overlapping atoms calculated
 number of electron     276.0000000 magnetization 
 keeping initial charge density in first step


--------------------------------------------------------------------------------------------------------


 Maximum index for augmentation-charges          744 (set IRDMAX)


--------------------------------------------------------------------------------------------------------


 First call to EWALD:  gamma=   0.214
 Maximum number of real-space cells 5x 5x 1
 Maximum number of reciprocal cells 2x 2x 8

 FEWALD executed in parallel
    FEWALD:  cpu time    0.00: real time    0.00


----------------------------------------- Iteration    1(   1)  ---------------------------------------


    POTLOK:  cpu time    0.09: real time    0.09
    SETDIJ:  cpu time    0.27: real time    0.27
     EDDAV:  cpu time   10.95: real time   10.96
       DOS:  cpu time    0.00: real time    0.00
    --------------------------------------------
      LOOP:  cpu time   11.32: real time   11.35

 eigenvalue-minimisations  :  5488
 total energy-change (2. order) : 0.2698182E+04  (-0.1791460E+05)
 number of electron     276.0000000 magnetization 
 augmentation part      276.0000000 magnetization 

 DIPCOR: dipole corrections for dipol
 direction  3 min pos   224,
 dipolmoment           0.000000      0.000000     -0.000003 electrons x Angstroem
 Tr[quadrupol]     -1341.233483

 energy correction for charged system         0.000000 eV
 dipol+quadrupol energy correction           -0.000000 eV
 added-field ion interaction          0.000010 eV  (added to PSCEN)


 Free energy of the ion-electron system (eV)
  ---------------------------------------------------
  alpha Z        PSCENC =       831.83599991
  Ewald energy   TEWEN  =    282554.54657248
  -Hartree energ DENC   =   -341740.58527659
  -exchange      EXHF   =         0.00000000
  -V(xc)+E(xc)   XCENC  =      1745.15242685
  PAW double counting   =     55786.54480181   -58178.33743849
  entropy T*S    EENTRO =        -0.02634561
  eigenvalues    EBANDS =     -4368.40394297
  atomic energy  EATOM  =     66067.45489428
  ---------------------------------------------------
  free energy    TOTEN  =      2698.18169167 eV

  energy without entropy =     2698.20803727  energy(sigma->0) =     2698.19486447


--------------------------------------------------------------------------------------------------------




----------------------------------------- Iteration    1(   2)  ---------------------------------------


     EDDAV:  cpu time    9.64: real time    9.65
       DOS:  cpu time    0.00: real time    0.00
    --------------------------------------------
      LOOP:  cpu time    9.65: real time    9.70

 eigenvalue-minimisations  :  4640
 total energy-change (2. order) :-0.2632714E+04  (-0.2563165E+04)
 number of electron     276.0000000 magnetization 
 augmentation part      276.0000000 magnetization 

 DIPCOR: dipole corrections for dipol
 direction  3 min pos   224,
 dipolmoment           0.000000      0.000000     -0.000003 electrons x Angstroem
 Tr[quadrupol]     -1341.233483

 energy correction for charged system         0.000000 eV
 dipol+quadrupol energy correction           -0.000000 eV
 added-field ion interaction          0.000010 eV  (added to PSCEN)


 Free energy of the ion-electron system (eV)
  ---------------------------------------------------
  alpha Z        PSCENC =       831.83599991
  Ewald energy   TEWEN  =    282554.54657248
  -Hartree energ DENC   =   -341740.58527659
  -exchange      EXHF   =         0.00000000
  -V(xc)+E(xc)   XCENC  =      1745.15242685
  PAW double counting   =     55786.54480181   -58178.33743849
  entropy T*S    EENTRO =        -0.03727756
  eigenvalues    EBANDS =     -7001.10715745
  atomic energy  EATOM  =     66067.45489428
  ---------------------------------------------------
  free energy    TOTEN  =        65.46754524 eV

  energy without entropy =       65.50482280  energy(sigma->0) =       65.48618402


--------------------------------------------------------------------------------------------------------




----------------------------------------- Iteration    1(   3)  ---------------------------------------


     EDDAV:  cpu time    9.90: real time    9.91
       DOS:  cpu time    0.00: real time    0.00
    --------------------------------------------
      LOOP:  cpu time    9.90: real time   10.01

 eigenvalue-minimisations  :  4816
 total energy-change (2. order) :-0.1411083E+03  (-0.1372648E+03)
 number of electron     276.0000000 magnetization 
 augmentation part      276.0000000 magnetization 

 DIPCOR: dipole corrections for dipol
 direction  3 min pos   224,
 dipolmoment           0.000000      0.000000     -0.000003 electrons x Angstroem
 Tr[quadrupol]     -1341.233483

 energy correction for charged system         0.000000 eV
 dipol+quadrupol energy correction           -0.000000 eV
 added-field ion interaction          0.000010 eV  (added to PSCEN)


 Free energy of the ion-electron system (eV)
  ---------------------------------------------------
  alpha Z        PSCENC =       831.83599991
  Ewald energy   TEWEN  =    282554.54657248
  -Hartree energ DENC   =   -341740.58527659
  -exchange      EXHF   =         0.00000000
  -V(xc)+E(xc)   XCENC  =      1745.15242685
  PAW double counting   =     55786.54480181   -58178.33743849
  entropy T*S    EENTRO =        -0.04036630
  eigenvalues    EBANDS =     -7142.21237500
  atomic energy  EATOM  =     66067.45489428
  ---------------------------------------------------
  free energy    TOTEN  =       -75.64076105 eV

  energy without entropy =      -75.60039475  energy(sigma->0) =      -75.62057790


--------------------------------------------------------------------------------------------------------




----------------------------------------- Iteration    1(   4)  ---------------------------------------


     EDDAV:  cpu time    9.73: real time    9.74
       DOS:  cpu time    0.00: real time    0.00
    --------------------------------------------
      LOOP:  cpu time    9.74: real time    9.77

 eigenvalue-minimisations  :  4688
 total energy-change (2. order) :-0.3911924E+01  (-0.3885425E+01)
 number of electron     276.0000000 magnetization 
 augmentation part      276.0000000 magnetization 

 DIPCOR: dipole corrections for dipol
 direction  3 min pos   224,
 dipolmoment           0.000000      0.000000     -0.000003 electrons x Angstroem
 Tr[quadrupol]     -1341.233483

 energy correction for charged system         0.000000 eV
 dipol+quadrupol energy correction           -0.000000 eV
 added-field ion interaction          0.000010 eV  (added to PSCEN)


 Free energy of the ion-electron system (eV)
  ---------------------------------------------------
  alpha Z        PSCENC =       831.83599991
  Ewald energy   TEWEN  =    282554.54657248
  -Hartree energ DENC   =   -341740.58527659
  -exchange      EXHF   =         0.00000000
  -V(xc)+E(xc)   XCENC  =      1745.15242685
  PAW double counting   =     55786.54480181   -58178.33743849
  entropy T*S    EENTRO =        -0.04146116
  eigenvalues    EBANDS =     -7146.12320395
  atomic energy  EATOM  =     66067.45489428
  ---------------------------------------------------
  free energy    TOTEN  =       -79.55268487 eV

  energy without entropy =      -79.51122371  energy(sigma->0) =      -79.53195429


--------------------------------------------------------------------------------------------------------




----------------------------------------- Iteration    1(   5)  ---------------------------------------


     EDDAV:  cpu time   10.38: real time   10.39
       DOS:  cpu time    0.00: real time    0.00
    CHARGE:  cpu time    0.59: real time    0.59
    MIXING:  cpu time    0.00: real time    0.00
    --------------------------------------------
      LOOP:  cpu time   10.98: real time   11.08

 eigenvalue-minimisations  :  5128
 total energy-change (2. order) :-0.1360936E+00  (-0.1360664E+00)
 number of electron     275.9999392 magnetization 
 augmentation part      165.2650497 magnetization 

 DIPCOR: dipole corrections for dipol
 direction  3 min pos   224,
 dipolmoment           0.000000      0.000000     -0.000003 electrons x Angstroem
 Tr[quadrupol]     -1341.233483

 energy correction for charged system         0.000000 eV
 dipol+quadrupol energy correction           -0.000000 eV
 added-field ion interaction          0.000010 eV  (added to PSCEN)


 Broyden mixing:
  rms(total) = 0.40190E+01    rms(broyden)= 0.40175E+01
  rms(prec ) = 0.41851E+01
  weight for this iteration     100.00

 Free energy of the ion-electron system (eV)
  ---------------------------------------------------
  alpha Z        PSCENC =       831.83599991
  Ewald energy   TEWEN  =    282554.54657248
  -Hartree energ DENC   =   -341740.58527659
  -exchange      EXHF   =         0.00000000
  -V(xc)+E(xc)   XCENC  =      1745.15242685
  PAW double counting   =     55786.54480181   -58178.33743849
  entropy T*S    EENTRO =        -0.04150195
  eigenvalues    EBANDS =     -7146.25925672
  atomic energy  EATOM  =     66067.45489428
  ---------------------------------------------------
  free energy    TOTEN  =       -79.68877843 eV

  energy without entropy =      -79.64727648  energy(sigma->0) =      -79.66802745


--------------------------------------------------------------------------------------------------------




----------------------------------------- Iteration    1(   6)  ---------------------------------------


    POTLOK:  cpu time    0.08: real time    0.08
    SETDIJ:  cpu time    0.27: real time    0.27
     EDDAV:  cpu time   10.30: real time   10.31
       DOS:  cpu time    0.00: real time    0.00
    CHARGE:  cpu time    0.59: real time    0.59
    MIXING:  cpu time    0.00: real time    0.00
    --------------------------------------------
      LOOP:  cpu time   11.25: real time   11.35

 eigenvalue-minimisations  :  5152
 total energy-change (2. order) :-0.3878726E+01  (-0.2018245E+02)
 number of electron     275.9999333 magnetization 
 augmentation part      179.6376016 magnetization 

 DIPCOR: dipole corrections for dipol
 direction  3 min pos   226,
 dipolmoment           0.000000      0.000000      0.606032 electrons x Angstroem
 Tr[quadrupol]     -1338.871892

 energy correction for charged system         0.000000 eV
 dipol+quadrupol energy correction           -0.058106 eV
 added-field ion interaction          5.772678 eV  (added to PSCEN)


 Broyden mixing:
  rms(total) = 0.50754E+01    rms(broyden)= 0.50748E+01
  rms(prec ) = 0.53547E+01
  weight for this iteration     100.00

 eigenvalues of (default mixing * dielectric matrix)
  average eigenvalue GAMMA=   0.3961
  0.3961

 Free energy of the ion-electron system (eV)
  ---------------------------------------------------
  alpha Z        PSCENC =       837.55056292
  Ewald energy   TEWEN  =    282554.54657248
  -Hartree energ DENC   =   -340580.83213620
  -exchange      EXHF   =         0.00000000
  -V(xc)+E(xc)   XCENC  =      1711.55918412
  PAW double counting   =     55128.73463474   -57454.67035954
  entropy T*S    EENTRO =        -0.03939455
  eigenvalues    EBANDS =     -8347.87146313
  atomic energy  EATOM  =     66067.45489428
  ---------------------------------------------------
  free energy    TOTEN  =       -83.56750489 eV

  energy without entropy =      -83.52811033  energy(sigma->0) =      -83.54780761


--------------------------------------------------------------------------------------------------------




----------------------------------------- Iteration    1(   7)  ---------------------------------------


    POTLOK:  cpu time    0.09: real time    0.09
    SETDIJ:  cpu time    0.27: real time    0.27
     EDDAV:  cpu time   10.82: real time   10.83
       DOS:  cpu time    0.00: real time    0.00
    CHARGE:  cpu time    0.59: real time    0.59
    MIXING:  cpu time    0.00: real time    0.00
    --------------------------------------------
      LOOP:  cpu time   11.77: real time   11.80

 eigenvalue-minimisations  :  5528
 total energy-change (2. order) : 0.1540361E+02  (-0.7839628E+01)
 number of electron     275.9999357 magnetization 
 augmentation part      175.9473805 magnetization 

 DIPCOR: dipole corrections for dipol
 direction  3 min pos   225,
 dipolmoment           0.000000      0.000000     -0.361281 electrons x Angstroem
 Tr[quadrupol]     -1340.762679

 energy correction for charged system         0.000000 eV
 dipol+quadrupol energy correction           -0.020650 eV
 added-field ion interaction         -1.144486 eV  (added to PSCEN)


 Broyden mixing:
  rms(total) = 0.32602E+01    rms(broyden)= 0.32596E+01
  rms(prec ) = 0.36221E+01
  weight for this iteration     100.00

 eigenvalues of (default mixing * dielectric matrix)
  average eigenvalue GAMMA=   0.4325
  0.4325  0.4325

 Free energy of the ion-electron system (eV)
  ---------------------------------------------------
  alpha Z        PSCENC =       830.67085378
  Ewald energy   TEWEN  =    282554.54657248
  -Hartree energ DENC   =   -340985.20976154
  -exchange      EXHF   =         0.00000000
  -V(xc)+E(xc)   XCENC  =      1719.85927801
  PAW double counting   =     56178.86742574   -58562.21952804
  entropy T*S    EENTRO =        -0.04252910
  eigenvalues    EBANDS =     -7872.09110515
  atomic energy  EATOM  =     66067.45489428
  ---------------------------------------------------
  free energy    TOTEN  =       -68.16389955 eV

  energy without entropy =      -68.12137044  energy(sigma->0) =      -68.14263499


--------------------------------------------------------------------------------------------------------




----------------------------------------- Iteration    1(   8)  ---------------------------------------


    POTLOK:  cpu time    0.08: real time    0.08
    SETDIJ:  cpu time    0.27: real time    0.27
     EDDAV:  cpu time   10.75: real time   10.76
       DOS:  cpu time    0.00: real time    0.00
    CHARGE:  cpu time    0.59: real time    0.59
    MIXING:  cpu time    0.00: real time    0.00
    --------------------------------------------
      LOOP:  cpu time   11.70: real time   11.74

 eigenvalue-minimisations  :  5496
 total energy-change (2. order) :-0.2695510E+01  (-0.6104118E+01)
 number of electron     275.9999346 magnetization 
 augmentation part      175.4635897 magnetization 

 DIPCOR: dipole corrections for dipol
 direction  3 min pos   222,
 dipolmoment           0.000000      0.000000      0.590481 electrons x Angstroem
 Tr[quadrupol]     -1340.508498

 energy correction for charged system         0.000000 eV
 dipol+quadrupol energy correction           -0.055162 eV
 added-field ion interaction         -9.391424 eV  (added to PSCEN)


 Broyden mixing:
  rms(total) = 0.22332E+01    rms(broyden)= 0.22322E+01
  rms(prec ) = 0.28381E+01
  weight for this iteration     100.00

 eigenvalues of (default mixing * dielectric matrix)
  average eigenvalue GAMMA=   0.6784
  1.1668  0.6680  0.2003

 Free energy of the ion-electron system (eV)
  ---------------------------------------------------
  alpha Z        PSCENC =       822.38940407
  Ewald energy   TEWEN  =    282554.54657248
  -Hartree energ DENC   =   -341011.02339848
  -exchange      EXHF   =         0.00000000
  -V(xc)+E(xc)   XCENC  =      1721.54105844
  PAW double counting   =     56480.32177844   -58883.13047943
  entropy T*S    EENTRO =        -0.04443648
  eigenvalues    EBANDS =     -7822.91480245
  atomic energy  EATOM  =     66067.45489428
  ---------------------------------------------------
  free energy    TOTEN  =       -70.85940913 eV

  energy without entropy =      -70.81497265  energy(sigma->0) =      -70.83719089


--------------------------------------------------------------------------------------------------------




----------------------------------------- Iteration    1(   9)  ---------------------------------------


    POTLOK:  cpu time    0.08: real time    0.08
    SETDIJ:  cpu time    0.27: real time    0.27
     EDDAV:  cpu time   10.55: real time   10.56
       DOS:  cpu time    0.00: real time    0.00
    CHARGE:  cpu time    0.59: real time    0.59
    MIXING:  cpu time    0.00: real time    0.00
    --------------------------------------------
      LOOP:  cpu time   11.49: real time   11.55

 eigenvalue-minimisations  :  5328
 total energy-change (2. order) : 0.6669276E+01  (-0.5077813E+01)
 number of electron     275.9999363 magnetization 
 augmentation part      173.4607471 magnetization 

 DIPCOR: dipole corrections for dipol
 direction  3 min pos   223,
 dipolmoment           0.000000      0.000000     -0.164165 electrons x Angstroem
 Tr[quadrupol]     -1341.351374

 energy correction for charged system         0.000000 eV
 dipol+quadrupol energy correction           -0.004264 eV
 added-field ion interaction          1.567315 eV  (added to PSCEN)


 Broyden mixing:
  rms(total) = 0.12786E+01    rms(broyden)= 0.12778E+01
  rms(prec ) = 0.15755E+01
  weight for this iteration     100.00

 eigenvalues of (default mixing * dielectric matrix)
  average eigenvalue GAMMA=   0.6544
  1.3583  0.6083  0.4699  0.1813

 Free energy of the ion-electron system (eV)
  ---------------------------------------------------
  alpha Z        PSCENC =       833.39904187
  Ewald energy   TEWEN  =    282554.54657248
  -Hartree energ DENC   =   -341149.17940094
  -exchange      EXHF   =         0.00000000
  -V(xc)+E(xc)   XCENC  =      1724.53991040
  PAW double counting   =     57306.87857459   -59768.36298582
  entropy T*S    EENTRO =        -0.05301368
  eigenvalues    EBANDS =     -7633.41372613
  atomic energy  EATOM  =     66067.45489428
  ---------------------------------------------------
  free energy    TOTEN  =       -64.19013295 eV

  energy without entropy =      -64.13711927  energy(sigma->0) =      -64.16362611


--------------------------------------------------------------------------------------------------------




----------------------------------------- Iteration    1(  10)  ---------------------------------------


    POTLOK:  cpu time    0.09: real time    0.09
    SETDIJ:  cpu time    0.27: real time    0.27
     EDDAV:  cpu time   10.66: real time   10.67
       DOS:  cpu time    0.00: real time    0.00
    CHARGE:  cpu time    0.58: real time    0.59
    MIXING:  cpu time    0.00: real time    0.00
    --------------------------------------------
      LOOP:  cpu time   11.61: real time   11.66

 eigenvalue-minimisations  :  5448
 total energy-change (2. order) : 0.1767752E+01  (-0.1076996E+01)
 number of electron     275.9999358 magnetization 
 augmentation part      173.3607669 magnetization 

 DIPCOR: dipole corrections for dipol
 direction  3 min pos   219,
 dipolmoment           0.000000      0.000000      0.002987 electrons x Angstroem
 Tr[quadrupol]     -1340.846446

 energy correction for charged system         0.000000 eV
 dipol+quadrupol energy correction           -0.000001 eV
 added-field ion interaction         -0.104466 eV  (added to PSCEN)


 Broyden mixing:
  rms(total) = 0.54633E+00    rms(broyden)= 0.54587E+00
  rms(prec ) = 0.62867E+00
  weight for this iteration     100.00

 eigenvalues of (default mixing * dielectric matrix)
  average eigenvalue GAMMA=   0.6598
  1.5212  0.6400  0.6400  0.1817  0.3159

 Free energy of the ion-electron system (eV)
  ---------------------------------------------------
  alpha Z        PSCENC =       831.73152226
  Ewald energy   TEWEN  =    282554.54657248
  -Hartree energ DENC   =   -341097.30772044
  -exchange      EXHF   =         0.00000000
  -V(xc)+E(xc)   XCENC  =      1724.36594073
  PAW double counting   =     57444.21606151   -59912.45619838
  entropy T*S    EENTRO =        -0.04646578
  eigenvalues    EBANDS =     -7674.92698790
  atomic energy  EATOM  =     66067.45489428
  ---------------------------------------------------
  free energy    TOTEN  =       -62.42238124 eV

  energy without entropy =      -62.37591546  energy(sigma->0) =      -62.39914835


--------------------------------------------------------------------------------------------------------




----------------------------------------- Iteration    1(  11)  ---------------------------------------


    POTLOK:  cpu time    0.08: real time    0.08
    SETDIJ:  cpu time    0.26: real time    0.26
     EDDAV:  cpu time   10.21: real time   10.22
       DOS:  cpu time    0.00: real time    0.00
    CHARGE:  cpu time    0.59: real time    0.59
    MIXING:  cpu time    0.00: real time    0.00
    --------------------------------------------
      LOOP:  cpu time   11.15: real time   11.20

 eigenvalue-minimisations  :  5128
 total energy-change (2. order) : 0.2605011E-01  (-0.5428409E+00)
 number of electron     275.9999356 magnetization 
 augmentation part      173.3413749 magnetization 

 DIPCOR: dipole corrections for dipol
 direction  3 min pos   224,
 dipolmoment           0.000000      0.000000      0.155521 electrons x Angstroem
 Tr[quadrupol]     -1341.208674

 energy correction for charged system         0.000000 eV
 dipol+quadrupol energy correction           -0.003827 eV
 added-field ion interaction         -0.496060 eV  (added to PSCEN)


 Broyden mixing:
  rms(total) = 0.51621E+00    rms(broyden)= 0.51600E+00
  rms(prec ) = 0.58457E+00
  weight for this iteration     100.00

 eigenvalues of (default mixing * dielectric matrix)
  average eigenvalue GAMMA=   0.6816
  1.6930  0.6908  0.6908  0.1850  0.4632  0.3669

 Free energy of the ion-electron system (eV)
  ---------------------------------------------------
  alpha Z        PSCENC =       831.33610342
  Ewald energy   TEWEN  =    282554.54657248
  -Hartree energ DENC   =   -341117.52810342
  -exchange      EXHF   =         0.00000000
  -V(xc)+E(xc)   XCENC  =      1723.81056056
  PAW double counting   =     57536.29929441   -60006.65216706
  entropy T*S    EENTRO =        -0.03784962
  eigenvalues    EBANDS =     -7651.62563619
  atomic energy  EATOM  =     66067.45489428
  ---------------------------------------------------
  free energy    TOTEN  =       -62.39633114 eV

  energy without entropy =      -62.35848152  energy(sigma->0) =      -62.37740633


--------------------------------------------------------------------------------------------------------




----------------------------------------- Iteration    1(  12)  ---------------------------------------


    POTLOK:  cpu time    0.08: real time    0.08
    SETDIJ:  cpu time    0.27: real time    0.27
     EDDAV:  cpu time    9.60: real time    9.61
       DOS:  cpu time    0.00: real time    0.00
    CHARGE:  cpu time    0.59: real time    0.59
    MIXING:  cpu time    0.00: real time    0.00
    --------------------------------------------
      LOOP:  cpu time   10.55: real time   10.60

 eigenvalue-minimisations  :  4704
 total energy-change (2. order) : 0.1007950E-01  (-0.1322300E+00)
 number of electron     275.9999357 magnetization 
 augmentation part      173.4738068 magnetization 

 DIPCOR: dipole corrections for dipol
 direction  3 min pos   222,
 dipolmoment           0.000000      0.000000      0.164532 electrons x Angstroem
 Tr[quadrupol]     -1341.440809

 energy correction for charged system         0.000000 eV
 dipol+quadrupol energy correction           -0.004283 eV
 added-field ion interaction         -2.616841 eV  (added to PSCEN)


 Broyden mixing:
  rms(total) = 0.25641E+00    rms(broyden)= 0.25638E+00
  rms(prec ) = 0.32828E+00
  weight for this iteration     100.00

 eigenvalues of (default mixing * dielectric matrix)
  average eigenvalue GAMMA=   0.6731
  1.7721  0.7148  0.7148  0.1842  0.4864  0.4864  0.3530

 Free energy of the ion-electron system (eV)
  ---------------------------------------------------
  alpha Z        PSCENC =       829.21486663
  Ewald energy   TEWEN  =    282554.54657248
  -Hartree energ DENC   =   -341125.01469707
  -exchange      EXHF   =         0.00000000
  -V(xc)+E(xc)   XCENC  =      1723.29461538
  PAW double counting   =     57634.51218652   -60105.14305602
  entropy T*S    EENTRO =        -0.04435818
  eigenvalues    EBANDS =     -7641.20727565
  atomic energy  EATOM  =     66067.45489428
  ---------------------------------------------------
  free energy    TOTEN  =       -62.38625164 eV

  energy without entropy =      -62.34189345  energy(sigma->0) =      -62.36407254


--------------------------------------------------------------------------------------------------------




----------------------------------------- Iteration    1(  13)  ---------------------------------------


    POTLOK:  cpu time    0.09: real time    0.09
    SETDIJ:  cpu time    0.27: real time    0.27
     EDDAV:  cpu time   10.44: real time   10.45
       DOS:  cpu time    0.00: real time    0.00
    CHARGE:  cpu time    0.59: real time    0.59
    MIXING:  cpu time    0.00: real time    0.00
    --------------------------------------------
      LOOP:  cpu time   11.39: real time   11.44

 eigenvalue-minimisations  :  5256
 total energy-change (2. order) : 0.7857965E-01  (-0.7359513E-01)
 number of electron     275.9999358 magnetization 
 augmentation part      173.4899692 magnetization 

 DIPCOR: dipole corrections for dipol
 direction  3 min pos   222,
 dipolmoment           0.000000      0.000000      0.103347 electrons x Angstroem
 Tr[quadrupol]     -1341.617439

 energy correction for charged system         0.000000 eV
 dipol+quadrupol energy correction           -0.001690 eV
 added-field ion interaction         -1.643706 eV  (added to PSCEN)


 Broyden mixing:
  rms(total) = 0.14217E+00    rms(broyden)= 0.14199E+00
  rms(prec ) = 0.15643E+00
  weight for this iteration     100.00

 eigenvalues of (default mixing * dielectric matrix)
  average eigenvalue GAMMA=   0.7220
  1.8194  0.8842  0.8842  0.6338  0.6338  0.1842  0.3682  0.3682

 Free energy of the ion-electron system (eV)
  ---------------------------------------------------
  alpha Z        PSCENC =       830.19059408
  Ewald energy   TEWEN  =    282554.54657248
  -Hartree energ DENC   =   -341129.29477524
  -exchange      EXHF   =         0.00000000
  -V(xc)+E(xc)   XCENC  =      1723.01181104
  PAW double counting   =     57729.56592395   -60200.80685846
  entropy T*S    EENTRO =        -0.05673431
  eigenvalues    EBANDS =     -7636.91909980
  atomic energy  EATOM  =     66067.45489428
  ---------------------------------------------------
  free energy    TOTEN  =       -62.30767199 eV

  energy without entropy =      -62.25093768  energy(sigma->0) =      -62.27930484


--------------------------------------------------------------------------------------------------------




----------------------------------------- Iteration    1(  14)  ---------------------------------------


    POTLOK:  cpu time    0.09: real time    0.09
    SETDIJ:  cpu time    0.26: real time    0.27
     EDDAV:  cpu time    9.57: real time    9.58
       DOS:  cpu time    0.00: real time    0.00
    CHARGE:  cpu time    0.59: real time    0.59
    MIXING:  cpu time    0.00: real time    0.00
    --------------------------------------------
      LOOP:  cpu time   10.51: real time   10.54

 eigenvalue-minimisations  :  4688
 total energy-change (2. order) :-0.2272204E-02  (-0.2039898E-01)
 number of electron     275.9999356 magnetization 
 augmentation part      173.6404690 magnetization 

 DIPCOR: dipole corrections for dipol
 direction  3 min pos   224,
 dipolmoment           0.000000      0.000000      0.117063 electrons x Angstroem
 Tr[quadrupol]     -1341.624157

 energy correction for charged system         0.000000 eV
 dipol+quadrupol energy correction           -0.002168 eV
 added-field ion interaction         -0.373391 eV  (added to PSCEN)


 Broyden mixing:
  rms(total) = 0.17339E+00    rms(broyden)= 0.17337E+00
  rms(prec ) = 0.18273E+00
  weight for this iteration     100.00

 eigenvalues of (default mixing * dielectric matrix)
  average eigenvalue GAMMA=   0.7456
  1.9567  1.0125  1.0125  0.1842  0.6535  0.5254  0.5254  0.5064  0.3341

 Free energy of the ion-electron system (eV)
  ---------------------------------------------------
  alpha Z        PSCENC =       831.46043146
  Ewald energy   TEWEN  =    282554.54657248
  -Hartree energ DENC   =   -341121.54370648
  -exchange      EXHF   =         0.00000000
  -V(xc)+E(xc)   XCENC  =      1722.83644059
  PAW double counting   =     57805.03930172   -60275.61841725
  entropy T*S    EENTRO =        -0.04797258
  eigenvalues    EBANDS =     -7646.43748842
  atomic energy  EATOM  =     66067.45489428
  ---------------------------------------------------
  free energy    TOTEN  =       -62.30994419 eV

  energy without entropy =      -62.26197161  energy(sigma->0) =      -62.28595790


--------------------------------------------------------------------------------------------------------




----------------------------------------- Iteration    1(  15)  ---------------------------------------


    POTLOK:  cpu time    0.08: real time    0.08
    SETDIJ:  cpu time    0.26: real time    0.26
     EDDAV:  cpu time   10.27: real time   10.28
       DOS:  cpu time    0.00: real time    0.00
    CHARGE:  cpu time    0.59: real time    0.59
    MIXING:  cpu time    0.00: real time    0.00
    --------------------------------------------
      LOOP:  cpu time   11.21: real time   11.28

 eigenvalue-minimisations  :  5160
 total energy-change (2. order) : 0.3534908E-02  (-0.3550756E-02)
 number of electron     275.9999356 magnetization 
 augmentation part      173.6571756 magnetization 

 DIPCOR: dipole corrections for dipol
 direction  3 min pos   221,
 dipolmoment           0.000000      0.000000      0.121424 electrons x Angstroem
 Tr[quadrupol]     -1341.771014

 energy correction for charged system         0.000000 eV
 dipol+quadrupol energy correction           -0.002333 eV
 added-field ion interaction         -2.703174 eV  (added to PSCEN)


 Broyden mixing:
  rms(total) = 0.12115E+00    rms(broyden)= 0.12114E+00
  rms(prec ) = 0.12823E+00
  weight for this iteration     100.00

 eigenvalues of (default mixing * dielectric matrix)
  average eigenvalue GAMMA=   0.8505
  2.8138  1.4407  0.7918  0.7918  0.6466  0.6466  0.1842  0.4669  0.3482  0.3748

 Free energy of the ion-electron system (eV)
  ---------------------------------------------------
  alpha Z        PSCENC =       829.13048382
  Ewald energy   TEWEN  =    282554.54657248
  -Hartree energ DENC   =   -341133.81143594
  -exchange      EXHF   =         0.00000000
  -V(xc)+E(xc)   XCENC  =      1722.79344645
  PAW double counting   =     57896.08349352   -60366.80700822
  entropy T*S    EENTRO =        -0.04973699
  eigenvalues    EBANDS =     -7631.64711869
  atomic energy  EATOM  =     66067.45489428
  ---------------------------------------------------
  free energy    TOTEN  =       -62.30640929 eV

  energy without entropy =      -62.25667229  energy(sigma->0) =      -62.28154079


--------------------------------------------------------------------------------------------------------




----------------------------------------- Iteration    1(  16)  ---------------------------------------


    POTLOK:  cpu time    0.09: real time    0.09
    SETDIJ:  cpu time    0.27: real time    0.27
     EDDAV:  cpu time    9.67: real time    9.68
       DOS:  cpu time    0.00: real time    0.00
    CHARGE:  cpu time    0.59: real time    0.59
    MIXING:  cpu time    0.00: real time    0.00
    --------------------------------------------
      LOOP:  cpu time   10.62: real time   10.66

 eigenvalue-minimisations  :  4704
 total energy-change (2. order) : 0.5828750E-02  (-0.4583415E-02)
 number of electron     275.9999357 magnetization 
 augmentation part      173.6489098 magnetization 

 DIPCOR: dipole corrections for dipol
 direction  3 min pos   213,
 dipolmoment           0.000000      0.000000      0.121983 electrons x Angstroem
 Tr[quadrupol]     -1341.895379

 energy correction for charged system         0.000000 eV
 dipol+quadrupol energy correction           -0.002354 eV
 added-field ion interaction         -8.919708 eV  (added to PSCEN)


 Broyden mixing:
  rms(total) = 0.52644E-01    rms(broyden)= 0.52606E-01
  rms(prec ) = 0.55753E-01
  weight for this iteration     100.00

 eigenvalues of (default mixing * dielectric matrix)
  average eigenvalue GAMMA=   0.8414
  2.1982  1.9572  0.9304  0.8180  0.8180  0.5886  0.5886  0.1842  0.3469  0.4125
  0.4125

 Free energy of the ion-electron system (eV)
  ---------------------------------------------------
  alpha Z        PSCENC =       822.91392836
  Ewald energy   TEWEN  =    282554.54657248
  -Hartree energ DENC   =   -341152.22370547
  -exchange      EXHF   =         0.00000000
  -V(xc)+E(xc)   XCENC  =      1722.75233974
  PAW double counting   =     58022.19990319   -60492.88977762
  entropy T*S    EENTRO =        -0.05523834
  eigenvalues    EBANDS =     -7606.99949715
  atomic energy  EATOM  =     66067.45489428
  ---------------------------------------------------
  free energy    TOTEN  =       -62.30058054 eV

  energy without entropy =      -62.24534220  energy(sigma->0) =      -62.27296137


--------------------------------------------------------------------------------------------------------




----------------------------------------- Iteration    1(  17)  ---------------------------------------


    POTLOK:  cpu time    0.08: real time    0.08
    SETDIJ:  cpu time    0.27: real time    0.27
     EDDAV:  cpu time   10.76: real time   10.77
       DOS:  cpu time    0.00: real time    0.00
    CHARGE:  cpu time    0.59: real time    0.59
    MIXING:  cpu time    0.00: real time    0.00
    --------------------------------------------
      LOOP:  cpu time   11.71: real time   11.81

 eigenvalue-minimisations  :  5464
 total energy-change (2. order) :-0.2323422E-03  (-0.7469485E-03)
 number of electron     275.9999357 magnetization 
 augmentation part      173.6556211 magnetization 

 DIPCOR: dipole corrections for dipol
 direction  3 min pos   209,
 dipolmoment           0.000000      0.000000      0.122646 electrons x Angstroem
 Tr[quadrupol]     -1341.856096

 energy correction for charged system         0.000000 eV
 dipol+quadrupol energy correction           -0.002380 eV
 added-field ion interaction        -12.087018 eV  (added to PSCEN)


 Broyden mixing:
  rms(total) = 0.36822E-01    rms(broyden)= 0.36818E-01
  rms(prec ) = 0.42164E-01
  weight for this iteration     100.00

 eigenvalues of (default mixing * dielectric matrix)
  average eigenvalue GAMMA=   0.8162
  2.1390  2.1390  0.9520  0.8393  0.8393  0.1842  0.4768  0.4768  0.5533  0.4782
  0.3310  0.3850

 Free energy of the ion-electron system (eV)
  ---------------------------------------------------
  alpha Z        PSCENC =       819.74659244
  Ewald energy   TEWEN  =    282554.54657248
  -Hartree energ DENC   =   -341155.25233471
  -exchange      EXHF   =         0.00000000
  -V(xc)+E(xc)   XCENC  =      1722.78991631
  PAW double counting   =     57990.98513751   -60460.83139178
  entropy T*S    EENTRO =        -0.05536155
  eigenvalues    EBANDS =     -7601.68483785
  atomic energy  EATOM  =     66067.45489428
  ---------------------------------------------------
  free energy    TOTEN  =       -62.30081288 eV

  energy without entropy =      -62.24545133  energy(sigma->0) =      -62.27313210


--------------------------------------------------------------------------------------------------------




----------------------------------------- Iteration    1(  18)  ---------------------------------------


    POTLOK:  cpu time    0.08: real time    0.08
    SETDIJ:  cpu time    0.27: real time    0.27
     EDDAV:  cpu time    9.59: real time    9.60
       DOS:  cpu time    0.00: real time    0.00
    CHARGE:  cpu time    0.59: real time    0.59
    MIXING:  cpu time    0.00: real time    0.00
    --------------------------------------------
      LOOP:  cpu time   10.54: real time   10.56

 eigenvalue-minimisations  :  4704
 total energy-change (2. order) : 0.1898868E-04  (-0.1154635E-03)
 number of electron     275.9999357 magnetization 
 augmentation part      173.6536198 magnetization 

 DIPCOR: dipole corrections for dipol
 direction  3 min pos   208,
 dipolmoment           0.000000      0.000000      0.122507 electrons x Angstroem
 Tr[quadrupol]     -1341.864373

 energy correction for charged system         0.000000 eV
 dipol+quadrupol energy correction           -0.002374 eV
 added-field ion interaction        -12.852233 eV  (added to PSCEN)


 Broyden mixing:
  rms(total) = 0.33803E-01    rms(broyden)= 0.33802E-01
  rms(prec ) = 0.40068E-01
  weight for this iteration     100.00

 eigenvalues of (default mixing * dielectric matrix)
  average eigenvalue GAMMA=   0.8567
  2.4545  2.1893  0.9260  0.9260  0.9306  0.8348  0.5822  0.5822  0.1842  0.4220
  0.3956  0.3547  0.3547

 Free energy of the ion-electron system (eV)
  ---------------------------------------------------
  alpha Z        PSCENC =       818.98138279
  Ewald energy   TEWEN  =    282554.54657248
  -Hartree energ DENC   =   -341157.49385840
  -exchange      EXHF   =         0.00000000
  -V(xc)+E(xc)   XCENC  =      1722.80563596
  PAW double counting   =     57989.89102977   -60459.62667095
  entropy T*S    EENTRO =        -0.05543380
  eigenvalues    EBANDS =     -7598.80434602
  atomic energy  EATOM  =     66067.45489428
  ---------------------------------------------------
  free energy    TOTEN  =       -62.30079389 eV

  energy without entropy =      -62.24536009  energy(sigma->0) =      -62.27307699


--------------------------------------------------------------------------------------------------------




----------------------------------------- Iteration    1(  19)  ---------------------------------------


    POTLOK:  cpu time    0.09: real time    0.09
    SETDIJ:  cpu time    0.27: real time    0.27
     EDDAV:  cpu time   10.06: real time   10.07
       DOS:  cpu time    0.00: real time    0.00
    CHARGE:  cpu time    0.59: real time    0.59
    MIXING:  cpu time    0.00: real time    0.00
    --------------------------------------------
      LOOP:  cpu time   11.01: real time   11.07

 eigenvalue-minimisations  :  5024
 total energy-change (2. order) :-0.6634948E-03  (-0.1637171E-03)
 number of electron     275.9999357 magnetization 
 augmentation part      173.6477189 magnetization 

 DIPCOR: dipole corrections for dipol
 direction  3 min pos   227,
 dipolmoment           0.000000      0.000000      0.112805 electrons x Angstroem
 Tr[quadrupol]     -1342.277186

 energy correction for charged system         0.000000 eV
 dipol+quadrupol energy correction           -0.002013 eV
 added-field ion interaction          1.791676 eV  (added to PSCEN)


 Broyden mixing:
  rms(total) = 0.36209E-01    rms(broyden)= 0.36207E-01
  rms(prec ) = 0.48311E-01
  weight for this iteration     100.00

 eigenvalues of (default mixing * dielectric matrix)
  average eigenvalue GAMMA=   0.9310
  2.6791  1.9746  1.9746  0.9698  0.9698  0.7540  0.7540  0.6084  0.6084  0.1842
  0.3410  0.4270  0.4084  0.3806

 Free energy of the ion-electron system (eV)
  ---------------------------------------------------
  alpha Z        PSCENC =       833.62565264
  Ewald energy   TEWEN  =    282554.54657248
  -Hartree energ DENC   =   -341164.49466275
  -exchange      EXHF   =         0.00000000
  -V(xc)+E(xc)   XCENC  =      1722.82894203
  PAW double counting   =     58000.14393530   -60469.77761226
  entropy T*S    EENTRO =        -0.05599038
  eigenvalues    EBANDS =     -7606.57318874
  atomic energy  EATOM  =     66067.45489428
  ---------------------------------------------------
  free energy    TOTEN  =       -62.30145738 eV

  energy without entropy =      -62.24546701  energy(sigma->0) =      -62.27346219


--------------------------------------------------------------------------------------------------------




----------------------------------------- Iteration    1(  20)  ---------------------------------------


    POTLOK:  cpu time    0.09: real time    0.09
    SETDIJ:  cpu time    0.27: real time    0.27
     EDDAV:  cpu time   10.67: real time   10.68
       DOS:  cpu time    0.00: real time    0.00
    CHARGE:  cpu time    0.59: real time    0.59
    MIXING:  cpu time    0.00: real time    0.00
    --------------------------------------------
      LOOP:  cpu time   11.62: real time   11.64

 eigenvalue-minimisations  :  5424
 total energy-change (2. order) : 0.2038212E-02  (-0.7443284E-03)
 number of electron     275.9999357 magnetization 
 augmentation part      173.6606735 magnetization 

 DIPCOR: dipole corrections for dipol
 direction  3 min pos   235,
 dipolmoment           0.000000      0.000000      0.114847 electrons x Angstroem
 Tr[quadrupol]     -1342.462320

 energy correction for charged system         0.000000 eV
 dipol+quadrupol energy correction           -0.002087 eV
 added-field ion interaction          7.665250 eV  (added to PSCEN)


 Broyden mixing:
  rms(total) = 0.14348E-01    rms(broyden)= 0.14326E-01
  rms(prec ) = 0.15453E-01
  weight for this iteration     100.00

 eigenvalues of (default mixing * dielectric matrix)
  average eigenvalue GAMMA=   0.9126
  2.8307  2.0265  2.0265  0.9189  0.9189  0.8069  0.8069  0.5886  0.5886  0.1842
  0.4779  0.3419  0.3953  0.3953  0.3826

 Free energy of the ion-electron system (eV)
  ---------------------------------------------------
  alpha Z        PSCENC =       839.49915382
  Ewald energy   TEWEN  =    282554.54657248
  -Hartree energ DENC   =   -341167.17846873
  -exchange      EXHF   =         0.00000000
  -V(xc)+E(xc)   XCENC  =      1722.82674747
  PAW double counting   =     57992.28008997   -60461.83926053
  entropy T*S    EENTRO =        -0.05426508
  eigenvalues    EBANDS =     -7609.83488285
  atomic energy  EATOM  =     66067.45489428
  ---------------------------------------------------
  free energy    TOTEN  =       -62.29941917 eV

  energy without entropy =      -62.24515409  energy(sigma->0) =      -62.27228663


--------------------------------------------------------------------------------------------------------




----------------------------------------- Iteration    1(  21)  ---------------------------------------


    POTLOK:  cpu time    0.09: real time    0.09
    SETDIJ:  cpu time    0.26: real time    0.27
     EDDAV:  cpu time   11.28: real time   11.30
       DOS:  cpu time    0.00: real time    0.00
    CHARGE:  cpu time    0.59: real time    0.59
    MIXING:  cpu time    0.00: real time    0.00
    --------------------------------------------
      LOOP:  cpu time   12.23: real time   12.32

 eigenvalue-minimisations  :  5872
 total energy-change (2. order) :-0.1592371E-03  (-0.2178541E-03)
 number of electron     275.9999357 magnetization 
 augmentation part      173.6633098 magnetization 

 DIPCOR: dipole corrections for dipol
 direction  3 min pos   222,
 dipolmoment           0.000000      0.000000      0.124042 electrons x Angstroem
 Tr[quadrupol]     -1342.255899

 energy correction for charged system         0.000000 eV
 dipol+quadrupol energy correction           -0.002434 eV
 added-field ion interaction         -1.972854 eV  (added to PSCEN)


 Broyden mixing:
  rms(total) = 0.74029E-02    rms(broyden)= 0.73838E-02
  rms(prec ) = 0.11551E-01
  weight for this iteration     100.00

 eigenvalues of (default mixing * dielectric matrix)
  average eigenvalue GAMMA=   0.9011
  2.8470  2.0192  2.0192  1.1438  0.8215  0.8215  0.7707  0.5523  0.5523  0.5664
  0.5664  0.1842  0.4464  0.3949  0.3415  0.3703

 Free energy of the ion-electron system (eV)
  ---------------------------------------------------
  alpha Z        PSCENC =       829.86070182
  Ewald energy   TEWEN  =    282554.54657248
  -Hartree energ DENC   =   -341168.42550715
  -exchange      EXHF   =         0.00000000
  -V(xc)+E(xc)   XCENC  =      1722.82576641
  PAW double counting   =     57990.90687631   -60460.45063500
  entropy T*S    EENTRO =        -0.05366634
  eigenvalues    EBANDS =     -7598.96458121
  atomic energy  EATOM  =     66067.45489428
  ---------------------------------------------------
  free energy    TOTEN  =       -62.29957841 eV

  energy without entropy =      -62.24591207  energy(sigma->0) =      -62.27274524


--------------------------------------------------------------------------------------------------------




----------------------------------------- Iteration    1(  22)  ---------------------------------------


    POTLOK:  cpu time    0.09: real time    0.09
    SETDIJ:  cpu time    0.27: real time    0.27
     EDDAV:  cpu time    9.73: real time    9.74
       DOS:  cpu time    0.00: real time    0.00
    CHARGE:  cpu time    0.59: real time    0.59
    MIXING:  cpu time    0.00: real time    0.00
    --------------------------------------------
      LOOP:  cpu time   10.68: real time   10.75

 eigenvalue-minimisations  :  4816
 total energy-change (2. order) : 0.4749410E-04  (-0.1090084E-03)
 number of electron     275.9999357 magnetization 
 augmentation part      173.6631220 magnetization 

 DIPCOR: dipole corrections for dipol
 direction  3 min pos   215,
 dipolmoment           0.000000      0.000000      0.124248 electrons x Angstroem
 Tr[quadrupol]     -1342.149178

 energy correction for charged system         0.000000 eV
 dipol+quadrupol energy correction           -0.002442 eV
 added-field ion interaction         -7.505484 eV  (added to PSCEN)


 Broyden mixing:
  rms(total) = 0.81818E-02    rms(broyden)= 0.81808E-02
  rms(prec ) = 0.84208E-02
  weight for this iteration     100.00

 eigenvalues of (default mixing * dielectric matrix)
  average eigenvalue GAMMA=   0.9247
  2.7061  1.9396  1.9396  1.6453  0.9357  0.9357  0.7151  0.7151  0.1842  0.6698
  0.6698  0.5602  0.5602  0.3419  0.4116  0.4116  0.3786

 Free energy of the ion-electron system (eV)
  ---------------------------------------------------
  alpha Z        PSCENC =       824.32806349
  Ewald energy   TEWEN  =    282554.54657248
  -Hartree energ DENC   =   -341169.27210686
  -exchange      EXHF   =         0.00000000
  -V(xc)+E(xc)   XCENC  =      1722.82303160
  PAW double counting   =     57989.32202621   -60458.87263231
  entropy T*S    EENTRO =        -0.05404877
  eigenvalues    EBANDS =     -7592.57533103
  atomic energy  EATOM  =     66067.45489428
  ---------------------------------------------------
  free energy    TOTEN  =       -62.29953091 eV

  energy without entropy =      -62.24548215  energy(sigma->0) =      -62.27250653


--------------------------------------------------------------------------------------------------------




----------------------------------------- Iteration    1(  23)  ---------------------------------------


    POTLOK:  cpu time    0.08: real time    0.09
    SETDIJ:  cpu time    0.27: real time    0.27
     EDDAV:  cpu time    8.12: real time    8.13
       DOS:  cpu time    0.00: real time    0.00
    CHARGE:  cpu time    0.59: real time    0.59
    MIXING:  cpu time    0.00: real time    0.00
    --------------------------------------------
      LOOP:  cpu time    9.06: real time    9.10

 eigenvalue-minimisations  :  3704
 total energy-change (2. order) :-0.3831434E-03  (-0.1214655E-03)
 number of electron     275.9999357 magnetization 
 augmentation part      173.6619404 magnetization 

 DIPCOR: dipole corrections for dipol
 direction  3 min pos   212,
 dipolmoment           0.000000      0.000000      0.121578 electrons x Angstroem
 Tr[quadrupol]     -1342.128808

 energy correction for charged system         0.000000 eV
 dipol+quadrupol energy correction           -0.002339 eV
 added-field ion interaction         -9.663011 eV  (added to PSCEN)


 Broyden mixing:
  rms(total) = 0.10840E-01    rms(broyden)= 0.10836E-01
  rms(prec ) = 0.15232E-01
  weight for this iteration     100.00

 eigenvalues of (default mixing * dielectric matrix)
  average eigenvalue GAMMA=   0.9843
  2.8546  2.8546  1.6977  1.6977  1.0257  1.0257  0.8502  0.8502  0.6943  0.6943
  0.1842  0.5865  0.5865  0.5669  0.3418  0.4259  0.4047  0.3761

 Free energy of the ion-electron system (eV)
  ---------------------------------------------------
  alpha Z        PSCENC =       822.17064074
  Ewald energy   TEWEN  =    282554.54657248
  -Hartree energ DENC   =   -341170.87299496
  -exchange      EXHF   =         0.00000000
  -V(xc)+E(xc)   XCENC  =      1722.82405244
  PAW double counting   =     57986.59450661   -60456.14077391
  entropy T*S    EENTRO =        -0.05440743
  eigenvalues    EBANDS =     -7588.82240431
  atomic energy  EATOM  =     66067.45489428
  ---------------------------------------------------
  free energy    TOTEN  =       -62.29991406 eV

  energy without entropy =      -62.24550663  energy(sigma->0) =      -62.27271034


--------------------------------------------------------------------------------------------------------




----------------------------------------- Iteration    1(  24)  ---------------------------------------


    POTLOK:  cpu time    0.09: real time    0.09
    SETDIJ:  cpu time    0.27: real time    0.27
     EDDAV:  cpu time    8.81: real time    8.82
       DOS:  cpu time    0.00: real time    0.00
    CHARGE:  cpu time    0.59: real time    0.59
    MIXING:  cpu time    0.00: real time    0.00
    --------------------------------------------
      LOOP:  cpu time    9.75: real time    9.81

 eigenvalue-minimisations  :  4200
 total energy-change (2. order) :-0.3476359E-04  (-0.6583550E-04)
 number of electron     275.9999357 magnetization 
 augmentation part      173.6620803 magnetization 

 DIPCOR: dipole corrections for dipol
 direction  3 min pos   211,
 dipolmoment           0.000000      0.000000      0.122496 electrons x Angstroem
 Tr[quadrupol]     -1342.144902

 energy correction for charged system         0.000000 eV
 dipol+quadrupol energy correction           -0.002374 eV
 added-field ion interaction        -10.514776 eV  (added to PSCEN)


 Broyden mixing:
  rms(total) = 0.44047E-02    rms(broyden)= 0.44030E-02
  rms(prec ) = 0.66814E-02
  weight for this iteration     100.00

 eigenvalues of (default mixing * dielectric matrix)
  average eigenvalue GAMMA=   0.9436
  2.8333  2.8333  1.5749  1.5749  1.2052  1.0543  0.8607  0.8607  0.6928  0.6928
  0.5914  0.5914  0.1842  0.5491  0.4294  0.4025  0.3416  0.3728  0.2820

 Free energy of the ion-electron system (eV)
  ---------------------------------------------------
  alpha Z        PSCENC =       821.31884054
[...]
     29     -71.0793      2.00000
     30     -71.0740      2.00000
     31     -71.0691      2.00000
     32     -71.0619      2.00000
     33     -71.0537      2.00000
     34     -70.9388      2.00000
     35     -70.9276      2.00000
     36     -70.9174      2.00000
     37     -70.9078      2.00000
     38     -70.8933      2.00000
     39     -70.8829      2.00000
     40     -70.8750      2.00000
     41     -70.8615      2.00000
     42     -70.8297      2.00000
     43     -70.8244      2.00000
     44     -70.8220      2.00000
     45     -70.8197      2.00000
     46     -70.6915      2.00000
     47     -70.6902      2.00000
     48     -70.5711      2.00000
     49     -12.1772      2.00000
     50      -8.7968      2.00000
     51      -7.7613      2.00000
     52      -7.5489      2.00000
     53      -6.8802      2.00000
     54      -6.7374      2.00000
     55      -6.3212      2.00000
     56      -6.1653      2.00000
     57      -5.9087      2.00000
     58      -5.7759      2.00000
     59      -5.6666      2.00000
     60      -5.5959      2.00000
     61      -5.5543      2.00000
     62      -5.4773      2.00000
     63      -5.4072      2.00000
     64      -5.3417      2.00000
     65      -5.2739      2.00000
     66      -5.2095      2.00000
     67      -5.1891      2.00000
     68      -5.1259      2.00000
     69      -5.1071      2.00000
     70      -5.0260      2.00000
     71      -4.9549      2.00000
     72      -4.9317      2.00000
     73      -4.9010      2.00000
     74      -4.8760      2.00000
     75      -4.8401      2.00000
     76      -4.7871      2.00000
     77      -4.7437      2.00000
     78      -4.7039      2.00000
     79      -4.6771      2.00000
     80      -4.5963      2.00000
     81      -4.5693      2.00000
     82      -4.5409      2.00000
     83      -4.4676      2.00000
     84      -4.4505      2.00000
     85      -4.4106      2.00000
     86      -4.3791      2.00000
     87      -4.2844      2.00000
     88      -4.2627      2.00000
     89      -4.2012      2.00000
     90      -4.1709      2.00000
     91      -4.1121      2.00000
     92      -4.0788      2.00000
     93      -4.0544      2.00000
     94      -4.0128      2.00000
     95      -3.9661      2.00000
     96      -3.9585      2.00000
     97      -3.9320      2.00000
     98      -3.8755      2.00000
     99      -3.8233      2.00000
    100      -3.8179      2.00000
    101      -3.7758      2.00000
    102      -3.7437      2.00000
    103      -3.6798      2.00000
    104      -3.6465      2.00000
    105      -3.6241      2.00000
    106      -3.6166      2.00000
    107      -3.5531      2.00000
    108      -3.5303      2.00000
    109      -3.4882      2.00000
    110      -3.4237      2.00000
    111      -3.3944      2.00000
    112      -3.3478      2.00000
    113      -3.3113      2.00000
    114      -3.2721      2.00000
    115      -3.2438      2.00000
    116      -3.2209      2.00000
    117      -3.1983      2.00000
    118      -3.1421      2.00000
    119      -3.0965      2.00000
    120      -3.0823      2.00000
    121      -3.0374      2.00000
    122      -3.0156      2.00000
    123      -2.9427      2.00000
    124      -2.9229      2.00000
    125      -2.8733      2.00000
    126      -2.8583      2.00000
    127      -2.8101      2.00000
    128      -2.7870      2.00000
    129      -2.7797      2.00000
    130      -2.7362      2.00000
    131      -2.7109      2.00000
    132      -2.6917      2.00000
    133      -2.6746      2.00000
    134      -2.3907      2.00000
    135      -2.2433      2.00000
    136      -2.1000      2.00000
    137      -1.8091      2.00000
    138      -1.3553      1.99999
    139      -0.9004      0.05802
    140      -0.2801      0.00000
    141       0.2061      0.00000
    142       0.5327      0.00000
    143       0.8985      0.00000
    144       1.1858      0.00000
    145       1.8470      0.00000
    146       2.1925      0.00000
    147       2.6610      0.00000
    148       3.0623      0.00000
    149       3.3953      0.00000
    150       4.2871      0.00000
    151       4.6003      0.00000
    152       4.7303      0.00000
    153       5.3446      0.00000
    154       5.4271      0.00000
    155       5.5182      0.00000
    156       5.8660      0.00000
    157       6.0222      0.00000
    158       6.2463      0.00000
    159       6.4268      0.00000
    160       6.6291      0.00000
    161       6.8381      0.00000
    162       7.1752      0.00000
    163       7.3423      0.00000
    164       7.3903      0.00000
    165       7.5035      0.00000
    166       7.5808      0.00000
    167       7.7605      0.00000
    168       8.0980      0.00000


--------------------------------------------------------------------------------------------------------


 soft charge-density along one line, spin component           1
         0         1         2         3         4         5         6         7         8         9
 total charge-density along one line
 
 pseudopotential strength for first ion, spin component:           1
-73.012   0.000   0.003  10.817  -0.000  -0.001   0.009   0.038
  0.000 -72.959   0.000  -0.000  10.793  -0.000  -0.000   0.005
  0.003   0.000 -73.009  -0.001  -0.000  10.815   0.004  -0.000
 10.817  -0.000  -0.001   5.361  -0.000   0.000  -0.002  -0.010
 -0.000  10.793  -0.000  -0.000   5.363  -0.000   0.000  -0.001
 -0.001  -0.000  10.815   0.000  -0.000   5.361  -0.001   0.000
  0.009  -0.000   0.004  -0.002   0.000  -0.001 -11.828  -0.000
  0.038   0.005  -0.000  -0.010  -0.001   0.000  -0.000 -11.794
 -0.003   0.036  -0.005   0.001  -0.010   0.001  -0.002   0.000
 -0.000   0.008   0.038   0.000  -0.002  -0.010  -0.003   0.002
 -0.006  -0.000   0.009   0.001   0.000  -0.002  -0.000  -0.003
  0.009  -0.000   0.004  -0.002   0.000  -0.001 -12.305  -0.000
  0.037   0.005  -0.000  -0.010  -0.001   0.000  -0.000 -12.271
 -0.003   0.035  -0.005   0.001  -0.010   0.001  -0.002   0.000
 -0.000   0.008   0.037   0.000  -0.002  -0.010  -0.003   0.002
 -0.006  -0.000   0.009   0.001   0.000  -0.002  -0.000  -0.003
 -0.001  -0.009  -0.002   0.000   0.002   0.000  -0.001  -0.000
 -0.003  -0.018  -0.005   0.000   0.004   0.001  -0.001  -0.000
 total augmentation occupancy for first ion, spin component:           1
  1.997   0.000   0.000  -0.016   0.000   0.000  -0.001  -0.009   0.000  -0.000  -0.000   0.001   0.008  -0.000   0.000   0.000
  0.000   1.997   0.000   0.000  -0.016   0.000  -0.000  -0.000  -0.011  -0.001  -0.000   0.000   0.000   0.010   0.001   0.000
  0.000   0.000   1.997   0.000   0.000  -0.016  -0.001  -0.000   0.000  -0.009  -0.001   0.001   0.000  -0.000   0.008   0.001
 -0.016   0.000   0.000   0.112  -0.001  -0.000   0.001  -0.116   0.005   0.001  -0.014  -0.001   0.105  -0.003  -0.000   0.017
  0.000  -0.016   0.000  -0.001   0.068  -0.002   0.004  -0.001  -0.132  -0.002   0.002  -0.003   0.000   0.148   0.001  -0.001
  0.000   0.000  -0.016  -0.000  -0.002   0.112  -0.014   0.001   0.009  -0.115   0.000   0.016  -0.000  -0.006   0.104  -0.001
 -0.001  -0.000  -0.001   0.001   0.004  -0.014   3.665  -0.001  -0.018  -0.098  -0.012  -1.426   0.000   0.012   0.040   0.008
 -0.009  -0.000  -0.000  -0.116  -0.001   0.001  -0.001   3.621   0.013   0.006  -0.098   0.000  -1.227  -0.008  -0.005   0.040
  0.000  -0.011   0.000   0.005  -0.132   0.009  -0.018   0.013   3.861   0.022  -0.010   0.012  -0.008  -1.487  -0.013   0.007
 -0.000  -0.001  -0.009   0.001  -0.002  -0.115  -0.098   0.006   0.022   3.628  -0.000   0.040  -0.005  -0.013  -1.233   0.000
 -0.000  -0.000  -0.001  -0.014   0.002   0.000  -0.012  -0.098  -0.010  -0.000   3.678   0.008   0.040   0.007  -0.000  -1.436
  0.001   0.000   0.001  -0.001  -0.003   0.016  -1.426   0.000   0.012   0.040   0.008   1.111   0.001  -0.009   0.005  -0.006
  0.008   0.000   0.000   0.105   0.000  -0.000   0.000  -1.227  -0.008  -0.005   0.040   0.001   0.791   0.005   0.003   0.004
 -0.000   0.010  -0.000  -0.003   0.148  -0.006   0.012  -0.008  -1.487  -0.013   0.007  -0.009   0.005   1.068   0.008  -0.005
  0.000   0.001   0.008  -0.000   0.001   0.104   0.040  -0.005  -0.013  -1.233  -0.000   0.005   0.003   0.008   0.795   0.001
  0.000   0.000   0.001   0.017  -0.001  -0.001   0.008   0.040   0.007   0.000  -1.436  -0.006   0.004  -0.005   0.001   1.118
  0.004   0.029   0.008   0.002   0.065   0.004   0.018   0.011   0.467   0.019   0.010  -0.009  -0.006  -0.372  -0.010  -0.005
 -0.002  -0.014  -0.004   0.000  -0.005   0.000  -0.003  -0.000  -0.037  -0.000  -0.002   0.000  -0.000   0.014  -0.000   0.000


------------------------ aborting loop because EDIFF is reached ----------------------------------------


 


 total charge     
 
# of ion     s       p       d       tot
----------------------------------------
  1        0.310   6.159   8.881  15.350
  2        0.314   6.161   8.868  15.343
  3        0.312   6.160   8.875  15.347
  4        0.312   6.159   8.875  15.347
  5        0.302   6.208   8.867  15.377
  6        0.302   6.208   8.867  15.376
  7        0.300   6.209   8.861  15.371
  8        0.303   6.206   8.872  15.381
  9        0.300   6.204   8.861  15.365
 10        0.298   6.203   8.874  15.375
 11        0.299   6.204   8.867  15.370
 12        0.313   6.209   8.859  15.381
 13        0.343   6.243   8.825  15.411
 14        0.341   6.242   8.795  15.377
 15        0.342   6.242   8.810  15.394
 16        0.270   6.150   8.915  15.335
 17        0.958   1.295   0.000   2.254
------------------------------------------------
tot        5.918 100.462 141.773 248.153
 
    CHARGE:  cpu time    0.59: real time    0.59
    FORLOC:  cpu time    0.01: real time    0.01
    FORNL :  cpu time    2.93: real time    2.94
    STRESS:  cpu time    2.38: real time    2.38
    FORCOR:  cpu time    0.09: real time    0.09
    FORHAR:  cpu time    0.03: real time    0.03
    MIXING:  cpu time    0.00: real time    0.00
    OFIELD:  cpu time    0.00: real time    0.00

 ---------------------------------------------------------------------------------------------

         DFTD3 V3.0 Rev 1        
 Edisp (eV)   -6.07895

 E6    (eV) :    -2.3895
 E8    (eV) :    -3.6895
 % E8        : 60.69
    FORVDW:  cpu time    0.10: real time    0.10

  FORCE on cell =-STRESS in cart. coord.  units (eV):
  Direction    XX          YY          ZZ          XY          YZ          ZX
  --------------------------------------------------------------------------------------
  Alpha Z   831.83599   831.83599   831.83599
  Ewald  312958.49480312960.57917************     1.80507    -1.20489     2.08689
  Hartree329788.90736329790.27901************     1.18787    -0.70838     1.22694
  E(xc)   -2152.53233 -2152.53095 -2154.99233     0.00094    -0.00089     0.00155
  Local  ************************654484.93466    -2.96315     1.88253    -3.26057
  n-local -1400.98767 -1399.86868 -1404.13302    -0.31341    -0.23538    -0.12620
  augment  3003.30310  3003.30164  3010.50665    -0.01412     0.00974    -0.01681
  Kinetic  3415.19660  3412.86049  3425.67289     0.66886     0.65684     0.36841
  Fock        0.00000     0.00000     0.00000     0.00000     0.00000     0.00000
  vdW        -7.74476    -7.74862    -4.42283    -0.00334    -0.00051     0.00089
  -------------------------------------------------------------------------------------
  Total      -1.42246    -1.40385    -1.58248     0.01612    -0.02180     0.03775
  in kB      -3.98513    -3.93298    -4.43342     0.04516    -0.06107     0.10577
  external pressure =       -4.12 kB  Pullay stress =        0.00 kB


 VOLUME and BASIS-vectors are now :
 -----------------------------------------------------------------------------
  energy-cutoff  :      400.00
  volume of cell :      571.89
      direct lattice vectors                 reciprocal lattice vectors
     5.019694805  0.000000000  0.000000000     0.199215299 -0.115017006  0.000000000
     2.509847403  4.347183220  0.000000000     0.000000000  0.230034013  0.000000000
     0.000000000  0.000000000 26.207422256     0.000000000  0.000000000  0.038157129

  length of vectors
     5.019694805  5.019694805 26.207422256     0.230034013  0.230034013  0.038157129


 FORCES acting on ions
    electron-ion (+dipol)            ewald-force                    non-local-force                 convergence-correction
 -----------------------------------------------------------------------------------------------
   0.559E+00 0.326E+00 0.994E+04   0.156E+00 0.874E-01 -.994E+04   -.665E+00 -.384E+00 -.246E+01   0.392E-04 0.551E-04 0.159E-01
   -.221E-02 -.647E+00 0.994E+04   0.243E-02 -.179E+00 -.994E+04   -.293E-03 0.768E+00 -.246E+01   -.281E-04 -.615E-04 0.159E-01
   -.560E+00 0.324E+00 0.994E+04   -.157E+00 0.907E-01 -.994E+04   0.667E+00 -.385E+00 -.247E+01   -.443E-04 0.256E-04 0.158E-01
   0.523E-02 -.296E-02 0.994E+04   -.315E-02 0.182E-02 -.994E+04   -.210E-02 0.121E-02 -.263E+01   0.249E-04 -.144E-04 0.162E-01
   0.118E+00 -.684E-01 0.343E+04   -.119E+00 0.688E-01 -.343E+04   -.169E-02 0.977E-03 -.162E+01   -.268E-03 0.155E-03 0.452E-01
   -.587E+00 0.339E+00 0.344E+04   0.543E+00 -.314E+00 -.344E+04   0.679E-01 -.392E-01 -.761E+00   -.269E-03 0.155E-03 0.452E-01
   0.163E+00 -.931E+00 0.344E+04   -.164E+00 0.891E+00 -.344E+04   -.209E-02 0.714E-01 -.755E+00   0.247E-03 -.186E-03 0.448E-01
   0.888E+00 0.324E+00 0.344E+04   -.854E+00 -.304E+00 -.344E+04   -.629E-01 -.339E-01 -.755E+00   0.285E-03 -.121E-03 0.448E-01
   0.308E+01 0.174E+01 -.310E+04   -.233E+01 -.131E+01 0.310E+04   -.748E+00 -.428E+00 0.196E+01   -.102E-02 -.104E-02 0.484E-01
   0.336E-01 -.353E+01 -.310E+04   -.313E-01 0.267E+01 0.310E+04   -.318E-02 0.861E+00 0.196E+01   0.388E-03 0.141E-02 0.484E-01
   -.302E+01 0.174E+01 -.310E+04   0.228E+01 -.132E+01 0.310E+04   0.744E+00 -.430E+00 0.195E+01   -.207E-02 0.119E-02 0.506E-01
   -.393E+00 0.226E+00 -.305E+04   0.390E+00 -.225E+00 0.305E+04   0.373E-02 -.215E-02 -.163E+01   0.807E-03 -.466E-03 0.438E-01
   0.506E+02 0.285E+02 -.950E+04   -.511E+02 -.287E+02 0.951E+04   0.461E+00 0.267E+00 -.211E+01   0.850E-02 0.507E-02 0.299E-01
   0.654E+00 -.581E+02 -.950E+04   -.652E+00 0.586E+02 0.951E+04   -.320E-03 -.533E+00 -.211E+01   -.143E-03 -.990E-02 0.299E-01
   -.499E+02 0.288E+02 -.950E+04   0.504E+02 -.291E+02 0.950E+04   -.466E+00 0.269E+00 -.211E+01   -.562E-02 0.325E-02 0.279E-01
   -.147E+01 0.846E+00 -.973E+04   0.147E+01 -.846E+00 0.972E+04   0.203E-02 -.117E-02 0.524E+01   0.137E-02 -.795E-03 0.195E-01
   -.177E+00 0.102E+00 -.290E+04   0.180E+00 -.104E+00 0.291E+04   0.277E-02 -.160E-02 -.778E+01   0.129E-03 -.745E-04 0.125E-02
 -----------------------------------------------------------------------------------------------
   -.917E-02 0.458E-02 0.180E+02   -.285E-12 0.283E-13 -.318E-11   -.189E-02 0.109E-02 -.185E+02   0.232E-02 -.134E-02 0.544E+00
 
 
 POSITION                                       TOTAL-FORCE (eV/Angst)
 -----------------------------------------------------------------------------------
      0.00000      0.00000      0.00000         0.051073      0.029061     -0.128153
      1.25492      2.17359      0.00000         0.000369     -0.058761     -0.128153
      2.50985      0.00000      0.00000        -0.049836      0.028773     -0.127948
      3.76477      2.17359      0.00000         0.000479     -0.000276     -0.219010
      1.25492      0.72453      2.04928        -0.002176      0.001256      0.121765
      2.50985      2.89812      2.04928         0.023914     -0.013807      0.166181
      3.76477      0.72453      2.04928        -0.002221      0.030932      0.165284
      5.01969      2.89812      2.04928        -0.027899     -0.013543      0.165284
      2.51100      1.45303      4.11084        -0.000707     -0.000482     -0.006662
      3.76191      3.61967      4.11084         0.000064      0.000854     -0.006662
      5.01288      1.45299      4.11064         0.001003     -0.000579     -0.005759
      6.27165      3.62437      4.10732         0.002129     -0.001229     -0.002191
      4.98268     -0.01595      6.20245        -0.006206     -0.004979     -0.001606
      6.26993      2.21362      6.20245         0.001209      0.007864     -0.001606
      5.04910      4.33021      6.20205        -0.000924      0.000533      0.004079
      3.75882      2.17703      6.25524         0.003014     -0.001740     -0.003601
      1.25109      0.72674      7.29071         0.006715     -0.003877      0.008757
 -----------------------------------------------------------------------------------
    total drift:                               -0.008744      0.004328     -0.026860


--------------------------------------------------------------------------------------------------------



  FREE ENERGIE OF THE ION-ELECTRON SYSTEM (eV)
  ---------------------------------------------------
  free  energy   TOTEN  =       -68.49169333 eV

  energy  without entropy=      -68.44326650  energy(sigma->0) =      -68.46747992
 
 d Force = 0.1438296E-05[ 0.689E-06, 0.219E-05]  d Energy = 0.9700536E-06 0.468E-06
 d Force =-0.1437428E+01[-0.144E+01,-0.144E+01]  d Ewald  =-0.1437428E+01 0.582E-10


--------------------------------------------------------------------------------------------------------


    POTLOK:  cpu time    0.36: real time    0.36


--------------------------------------------------------------------------------------------------------


 stress matrix after NEB project (eV)
     -1.42246      0.01612      0.03775
      0.01612     -1.40385     -0.02180
      0.03775     -0.02180     -1.58248
  FORCES: max atom, RMS     0.011696    0.005128
  FORCE total and by dimension    0.021143    0.008757
  Stress total and by dimension    2.550050    1.582478


--------------------------------------------------------------------------------------------------------


  
 reached required accuracy - stopping structural energy minimisation
     LOOP+:  cpu time   52.45: real time   52.84
    4ORBIT:  cpu time    0.00: real time    0.00
 


 total charge     
 
# of ion     s       p       d       tot
----------------------------------------
  1        0.310   6.159   8.881  15.350
  2        0.314   6.161   8.868  15.343
  3        0.312   6.160   8.875  15.347
  4        0.312   6.159   8.875  15.347
  5        0.302   6.208   8.867  15.377
  6        0.302   6.208   8.867  15.376
  7        0.300   6.209   8.861  15.371
  8        0.303   6.206   8.872  15.381
  9        0.300   6.204   8.861  15.365
 10        0.298   6.203   8.874  15.375
 11        0.299   6.204   8.867  15.370
 12        0.313   6.209   8.859  15.381
 13        0.343   6.243   8.825  15.411
 14        0.341   6.242   8.795  15.377
 15        0.342   6.242   8.810  15.394
 16        0.270   6.150   8.915  15.335
 17        0.958   1.295   0.000   2.254
------------------------------------------------
tot        5.918 100.462 141.773 248.153
 

 total amount of memory used by VASP on root node    56266. kBytes
========================================================================

   base      :      30000. kBytes
   nonl-proj :       5268. kBytes
   fftplans  :       3436. kBytes
   grid      :       5670. kBytes
   one-center:         46. kBytes
   wavefun   :      11846. kBytes
 
  
  
 General timing and accounting informations for this job:
 ========================================================
  
                  Total CPU time used (sec):     2236.035
                            User time (sec):     2229.018
                          System time (sec):        7.017
                         Elapsed time (sec):     2258.864
  
                   Maximum memory used (kb):      115352.
                   Average memory used (kb):           0.
  
                          Minor page faults:       278253
                          Major page faults:            0
                 Voluntary context switches:        60326
