PROCAR new format
# of k-points:   13         # of bands: 168         # of ions:  17

 k-point    1 :    0.00000000 0.00000000 0.00000000     weight = 0.02777778

band   1 # energy  -71.90414509 # occ.  2.00000000
 
ion      s      p      d    tot
  1  0.000  0.000  0.000  0.000
  2  0.000  0.000  0.000  0.000
  3  0.000  0.000  0.000  0.000
  4  0.000  0.000  0.000  0.000
  5  0.000  0.000  0.000  0.000
  6  0.000  0.000  0.000  0.000
  7  0.000  0.000  0.000  0.000
  8  0.000  0.000  0.000  0.000
  9  0.000  0.000  0.000  0.000
 10  0.000  0.000  0.000  0.000
 11  0.000  0.000  0.000  0.000
 12  0.000  0.001  0.000  0.001
 13  0.000  0.336  0.000  0.336
 14  0.000  0.336  0.000  0.336
 15  0.000  0.322  0.000  0.322
 16  0.000  0.000  0.000  0.000
 17  0.000  0.000  0.000  0.000
tot  0.000  0.995  0.000  0.995
 
band   2 # energy  -71.84470064 # occ.  2.00000000
 
ion      s      p      d    tot
  1  0.000  0.000  0.000  0.000
  2  0.000  0.000  0.000  0.000
  3  0.000  0.000  0.000  0.000
  4  0.000  0.000  0.000  0.000
  5  0.000  0.000  0.000  0.000
  6  0.000  0.000  0.000  0.000
  7  0.000  0.000  0.000  0.000
  8  0.000  0.000  0.000  0.000
  9  0.000  0.000  0.000  0.000
 10  0.000  0.000  0.000  0.000
 11  0.000  0.000  0.000  0.000
 12  0.000  0.000  0.000  0.000
 13  0.000  0.498  0.000  0.498
 14  0.000  0.495  0.000  0.495
 15  0.000  0.003  0.000  0.003
 16  0.000  0.000  0.000  0.000
 17  0.000  0.000  0.000  0.000
tot  0.000  0.997  0.000  0.997
 
band   3 # energy  -71.84365664 # occ.  2.00000000
 
ion      s      p      d    tot
  1  0.000  0.000  0.000  0.000
  2  0.000  0.000  0.000  0.000
  3  0.000  0.000  0.000  0.000
  4  0.000  0.000  0.000  0.000
  5  0.000  0.000  0.000  0.000
  6  0.000  0.000  0.000  0.000
  7  0.000  0.000  0.000  0.000
  8  0.000  0.000  0.000  0.000
  9  0.000  0.000  0.000  0.000
 10  0.000  0.000  0.000  0.000
 11  0.000  0.000  0.000  0.000
 12  0.000  0.000  0.000  0.000
 13  0.000  0.161  0.000  0.161
 14  0.000  0.164  0.000  0.164
 15  0.000  0.672  0.000  0.672
 16  0.000  0.000  0.000  0.000
 17  0.000  0.000  0.000  0.000
tot  0.000  0.997  0.000  0.997
 
band   4 # energy  -71.54702111 # occ.  2.00000000
 
ion      s      p      d    tot
  1  0.000  0.000  0.000  0.000
  2  0.000  0.000  0.000  0.000
  3  0.000  0.000  0.000  0.000
  4  0.000  0.000  0.000  0.000
  5  0.000  0.000  0.000  0.000
  6  0.000  0.000  0.000  0.000
  7  0.000  0.000  0.000  0.000
  8  0.000  0.000  0.000  0.000
  9  0.000  0.000  0.000  0.000
 10  0.000  0.000  0.000  0.000
 11  0.000  0.001  0.000  0.001
 12  0.000  0.000  0.000  0.000
 13  0.000  0.464  0.000  0.464
 14  0.000  0.472  0.000  0.472
 15  0.000  0.057  0.000  0.057
 16  0.000  0.002  0.000  0.002
 17  0.000  0.000  0.000  0.000
tot  0.000  0.996  0.000  0.996
 
band   5 # energy  -71.54654982 # occ.  2.00000000
 
ion      s      p      d    tot
  1  0.000  0.000  0.000  0.000
  2  0.000  0.000  0.000  0.000
  3  0.000  0.000  0.000  0.000
  4  0.000  0.000  0.000  0.000
  5  0.000  0.000  0.000  0.000
  6  0.000  0.000  0.000  0.000
  7  0.000  0.000  0.000  0.000
  8  0.000  0.000  0.000  0.000
  9  0.000  0.000  0.000  0.000
 10  0.000  0.000  0.000  0.000
 11  0.000  0.000  0.000  0.000
 12  0.000  0.000  0.000  0.000
 13  0.000  0.204  0.000  0.204
 14  0.000  0.197  0.000  0.197
 15  0.000  0.592  0.000  0.592
 16  0.000  0.002  0.000  0.002
 17  0.000  0.000  0.000  0.000
tot  0.000  0.996  0.000  0.996
 
band   6 # energy  -71.53254602 # occ.  2.00000000
 
ion      s      p      d    tot
  1  0.000  0.000  0.000  0.000
  2  0.000  0.000  0.000  0.000
  3  0.000  0.000  0.000  0.000
  4  0.000  0.000  0.000  0.000
  5  0.000  0.000  0.000  0.000
  6  0.000  0.000  0.000  0.000
  7  0.000  0.000  0.000  0.000
  8  0.000  0.000  0.000  0.000
  9  0.000  0.001  0.000  0.001
 10  0.000  0.001  0.000  0.001
 11  0.000  0.001  0.000  0.001
 12  0.000  0.000  0.000  0.000
 13  0.000  0.333  0.000  0.333
 14  0.000  0.333  0.000  0.333
 15  0.000  0.327  0.000  0.327
 16  0.000  0.000  0.000  0.000
 17  0.000  0.000  0.000  0.000
tot  0.000  0.996  0.000  0.996
 
band   7 # energy  -71.50723117 # occ.  2.00000000
 
ion      s      p      d    tot
  1  0.000  0.000  0.000  0.000
  2  0.000  0.000  0.000  0.000
  3  0.000  0.000  0.000  0.000
  4  0.000  0.000  0.000  0.000
  5  0.000  0.000  0.000  0.000
  6  0.000  0.000  0.000  0.000
  7  0.000  0.000  0.000  0.000
  8  0.000  0.000  0.000  0.000
  9  0.000  0.000  0.000  0.000
 10  0.000  0.000  0.000  0.000
 11  0.000  0.000  0.000  0.000
 12  0.000  0.000  0.000  0.000
 13  0.000  0.330  0.000  0.330
 14  0.000  0.330  0.000  0.330
 15  0.000  0.337  0.000  0.337
 16  0.000  0.000  0.000  0.000
 17  0.000  0.000  0.000  0.000
tot  0.000  0.997  0.000  0.997
 
band   8 # energy  -71.49310861 # occ.  2.00000000
 
ion      s      p      d    tot
  1  0.000  0.000  0.000  0.000
  2  0.000  0.000  0.000  0.000
  3  0.000  0.000  0.000  0.000
  4  0.000  0.000  0.000  0.000
  5  0.000  0.000  0.000  0.000
  6  0.000  0.000  0.000  0.000
  7  0.000  0.000  0.000  0.000
  8  0.000  0.000  0.000  0.000
  9  0.000  0.000  0.000  0.000
 10  0.000  0.000  0.000  0.000
 11  0.000  0.001  0.000  0.001
 12  0.000  0.000  0.000  0.000
 13  0.000  0.471  0.000  0.471
 14  0.000  0.462  0.000  0.462
 15  0.000  0.063  0.000  0.063
 16  0.000  0.000  0.000  0.000
 17  0.000  0.000  0.000  0.000
tot  0.000  0.997  0.000  0.997
 
band   9 # energy  -71.49262884 # occ.  2.00000000
 
ion      s      p      d    tot
  1  0.000  0.000  0.000  0.000
  2  0.000  0.000  0.000  0.000
  3  0.000  0.000  0.000  0.000
  4  0.000  0.000  0.000  0.000
  5  0.000  0.000  0.000  0.000
  6  0.000  0.000  0.000  0.000
  7  0.000  0.000  0.000  0.000
  8  0.000  0.000  0.000  0.000
  9  0.000  0.000  0.000  0.000
 10  0.000  0.000  0.000  0.000
 11  0.000  0.000  0.000  0.000
 12  0.000  0.000  0.000  0.000
 13  0.000  0.187  0.000  0.187
 14  0.000  0.196  0.000  0.196
 15  0.000  0.613  0.000  0.613
 16  0.000  0.000  0.000  0.000
 17  0.000  0.000  0.000  0.000
tot  0.000  0.997  0.000  0.997
 
band  10 # energy  -71.22745523 # occ.  2.00000000
 
ion      s      p      d    tot
  1  0.000  0.000  0.000  0.000
  2  0.000  0.000  0.000  0.000
  3  0.000  0.000  0.000  0.000
  4  0.000  0.002  0.000  0.002
  5  0.000  0.000  0.000  0.000
  6  0.000  0.298  0.000  0.298
  7  0.000  0.301  0.000  0.301
  8  0.000  0.302  0.000  0.302
  9  0.000  0.000  0.000  0.000
 10  0.000  0.000  0.000  0.000
 11  0.000  0.000  0.000  0.000
 12  0.000  0.090  0.000  0.090
 13  0.000  0.000  0.000  0.000
 14  0.000  0.000  0.000  0.000
 15  0.000  0.000  0.000  0.000
 16  0.000  0.000  0.000  0.000
 17  0.000  0.000  0.000  0.000
tot  0.000  0.995  0.000  0.995
 
band  11 # energy  -71.21315853 # occ.  2.00000000
 
ion      s      p      d    tot
  1  0.000  0.001  0.000  0.001
  2  0.000  0.001  0.000  0.001
  3  0.000  0.000  0.000  0.000
  4  0.000  0.000  0.000  0.000
  5  0.000  0.256  0.000  0.256
  6  0.000  0.412  0.000  0.412
  7  0.000  0.194  0.000  0.194
  8  0.000  0.110  0.000  0.110
  9  0.000  0.009  0.000  0.009
 10  0.000  0.007  0.000  0.007
 11  0.000  0.002  0.000  0.002
 12  0.000  0.003  0.000  0.003
 13  0.000  0.000  0.000  0.000
 14  0.000  0.000  0.000  0.000
 15  0.000  0.000  0.000  0.000
 16  0.000  0.000  0.000  0.000
 17  0.000  0.000  0.000  0.000
tot  0.000  0.995  0.000  0.995
 
band  12 # energy  -71.21313001 # occ.  2.00000000
 
ion      s      p      d    tot
  1  0.000  0.000  0.000  0.000
  2  0.000  0.001  0.000  0.001
  3  0.000  0.001  0.000  0.001
  4  0.000  0.000  0.000  0.000
  5  0.000  0.256  0.000  0.256
  6  0.000  0.068  0.000  0.068
  7  0.000  0.282  0.000  0.282
  8  0.000  0.366  0.000  0.366
  9  0.000  0.003  0.000  0.003
 10  0.000  0.005  0.000  0.005
 11  0.000  0.010  0.000  0.010
 12  0.000  0.003  0.000  0.003
 13  0.000  0.000  0.000  0.000
 14  0.000  0.000  0.000  0.000
 15  0.000  0.000  0.000  0.000
 16  0.000  0.000  0.000  0.000
 17  0.000  0.000  0.000  0.000
tot  0.000  0.995  0.000  0.995
 
band  13 # energy  -71.19615657 # occ.  2.00000000
 
ion      s      p      d    tot
  1  0.000  0.001  0.000  0.001
  2  0.000  0.001  0.000  0.001
  3  0.000  0.001  0.000  0.001
  4  0.000  0.001  0.000  0.001
  5  0.000  0.007  0.000  0.007
  6  0.000  0.239  0.000  0.239
  7  0.000  0.239  0.000  0.239
  8  0.000  0.239  0.000  0.239
  9  0.000  0.027  0.000  0.027
 10  0.000  0.027  0.000  0.027
 11  0.000  0.027  0.000  0.027
 12  0.000  0.185  0.000  0.185
 13  0.000  0.000  0.000  0.000
 14  0.000  0.000  0.000  0.000
 15  0.000  0.000  0.000  0.000
 16  0.000  0.000  0.000  0.000
 17  0.000  0.000  0.000  0.000
tot  0.000  0.996  0.000  0.996
 
band  14 # energy  -71.18033251 # occ.  2.00000000
 
ion      s      p      d    tot
  1  0.000  0.001  0.000  0.001
  2  0.000  0.001  0.000  0.001
  3  0.000  0.002  0.000  0.002
  4  0.000  0.002  0.000  0.002
  5  0.000  0.003  0.000  0.003
  6  0.000  0.003  0.000  0.003
  7  0.000  0.357  0.000  0.357
  8  0.000  0.377  0.000  0.377
  9  0.000  0.028  0.000  0.028
 10  0.000  0.030  0.000  0.030
 11  0.000  0.068  0.000  0.068
 12  0.000  0.126  0.000  0.126
 13  0.000  0.000  0.000  0.000
 14  0.000  0.000  0.000  0.000
 15  0.000  0.000  0.000  0.000
 16  0.000  0.000  0.000  0.000
 17  0.000  0.000  0.000  0.000
tot  0.000  0.996  0.000  0.996
 
band  15 # energy  -71.18027858 # occ.  2.00000000
 
ion      s      p      d    tot
  1  0.000  0.001  0.000  0.001
  2  0.000  0.001  0.000  0.001
  3  0.000  0.001  0.000  0.001
  4  0.000  0.002  0.000  0.002
  5  0.000  0.003  0.000  0.003
  6  0.000  0.494  0.000  0.494
  7  0.000  0.133  0.000  0.133
  8  0.000  0.113  0.000  0.113
  9  0.000  0.055  0.000  0.055
 10  0.000  0.053  0.000  0.053
 11  0.000  0.016  0.000  0.016
 12  0.000  0.124  0.000  0.124
 13  0.000  0.000  0.000  0.000
 14  0.000  0.000  0.000  0.000
 15  0.000  0.000  0.000  0.000
 16  0.000  0.000  0.000  0.000
 17  0.000  0.000  0.000  0.000
tot  0.000  0.996  0.000  0.996
 
band  16 # energy  -71.15642984 # occ.  2.00000000
 
ion      s      p      d    tot
  1  0.000  0.000  0.000  0.000
  2  0.000  0.000  0.000  0.000
  3  0.000  0.000  0.000  0.000
  4  0.000  0.001  0.000  0.001
  5  0.000  0.000  0.000  0.000
  6  0.000  0.072  0.000  0.072
  7  0.000  0.074  0.000  0.074
  8  0.000  0.074  0.000  0.074
  9  0.000  0.031  0.000  0.031
 10  0.000  0.031  0.000  0.031
 11  0.000  0.032  0.000  0.032
 12  0.000  0.681  0.000  0.681
 13  0.000  0.000  0.000  0.000
 14  0.000  0.000  0.000  0.000
 15  0.000  0.000  0.000  0.000
 16  0.000  0.000  0.000  0.000
 17  0.000  0.000  0.000  0.000
tot  0.000  0.997  0.000  0.997
 
band  17 # energy  -71.14941135 # occ.  2.00000000
 
ion      s      p      d    tot
  1  0.000  0.001  0.000  0.001
  2  0.000  0.001  0.000  0.001
  3  0.000  0.001  0.000  0.001
  4  0.000  0.000  0.000  0.000
  5  0.000  0.207  0.000  0.207
  6  0.000  0.013  0.000  0.013
  7  0.000  0.012  0.000  0.012
  8  0.000  0.012  0.000  0.012
  9  0.000  0.237  0.000  0.237
 10  0.000  0.237  0.000  0.237
 11  0.000  0.237  0.000  0.237
 12  0.000  0.037  0.000  0.037
 13  0.000  0.000  0.000  0.000
 14  0.000  0.000  0.000  0.000
 15  0.000  0.000  0.000  0.000
 16  0.000  0.000  0.000  0.000
 17  0.000  0.000  0.000  0.000
tot  0.000  0.995  0.000  0.995
 
band  18 # energy  -71.14248146 # occ.  2.00000000
 
ion      s      p      d    tot
  1  0.000  0.000  0.000  0.000
  2  0.000  0.000  0.000  0.000
  3  0.000  0.000  0.000  0.000
  4  0.000  0.000  0.000  0.000
  5  0.000  0.000  0.000  0.000
  6  0.000  0.328  0.000  0.328
  7  0.000  0.330  0.000  0.330
  8  0.000  0.330  0.000  0.330
  9  0.000  0.002  0.000  0.002
 10  0.000  0.002  0.000  0.002
 11  0.000  0.003  0.000  0.003
 12  0.000  0.000  0.000  0.000
 13  0.000  0.000  0.000  0.000
 14  0.000  0.000  0.000  0.000
 15  0.000  0.000  0.000  0.000
 16  0.000  0.000  0.000  0.000
 17  0.000  0.000  0.000  0.000
tot  0.000  0.997  0.000  0.997
 
band  19 # energy  -71.14182519 # occ.  2.00000000
 
ion      s      p      d    tot
  1  0.000  0.000  0.000  0.000
  2  0.000  0.000  0.000  0.000
  3  0.000  0.001  0.000  0.001
  4  0.000  0.001  0.000  0.001
  5  0.000  0.016  0.000  0.016
  6  0.000  0.001  0.000  0.001
  7  0.000  0.138  0.000  0.138
  8  0.000  0.152  0.000  0.152
  9  0.000  0.056  0.000  0.056
 10  0.000  0.069  0.000  0.069
 11  0.000  0.181  0.000  0.181
 12  0.000  0.381  0.000  0.381
 13  0.000  0.000  0.000  0.000
 14  0.000  0.000  0.000  0.000
 15  0.000  0.000  0.000  0.000
 16  0.000  0.000  0.000  0.000
 17  0.000  0.000  0.000  0.000
tot  0.000  0.996  0.000  0.996
 
band  20 # energy  -71.14171452 # occ.  2.00000000
 
ion      s      p      d    tot
  1  0.000  0.000  0.000  0.000
  2  0.000  0.000  0.000  0.000
  3  0.000  0.000  0.000  0.000
  4  0.000  0.001  0.000  0.001
  5  0.000  0.016  0.000  0.016
  6  0.000  0.190  0.000  0.190
  7  0.000  0.056  0.000  0.056
  8  0.000  0.042  0.000  0.042
  9  0.000  0.148  0.000  0.148
 10  0.000  0.135  0.000  0.135
 11  0.000  0.024  0.000  0.024
 12  0.000  0.383  0.000  0.383
 13  0.000  0.000  0.000  0.000
 14  0.000  0.000  0.000  0.000
 15  0.000  0.000  0.000  0.000
 16  0.000  0.000  0.000  0.000
 17  0.000  0.000  0.000  0.000
tot  0.000  0.996  0.000  0.996
 
band  21 # energy  -71.13802809 # occ.  2.00000000
 
ion      s      p      d    tot
  1  0.000  0.000  0.000  0.000
  2  0.000  0.001  0.000  0.001
  3  0.000  0.000  0.000  0.000
  4  0.000  0.000  0.000  0.000
  5  0.000  0.198  0.000  0.198
  6  0.000  0.411  0.000  0.411
  7  0.000  0.011  0.000  0.011
  8  0.000  0.295  0.000  0.295
  9  0.000  0.003  0.000  0.003
 10  0.000  0.007  0.000  0.007
 11  0.000  0.002  0.000  0.002
 12  0.000  0.069  0.000  0.069
 13  0.000  0.000  0.000  0.000
 14  0.000  0.000  0.000  0.000
 15  0.000  0.000  0.000  0.000
 16  0.000  0.000  0.000  0.000
 17  0.000  0.000  0.000  0.000
tot  0.000  0.997  0.000  0.997
 
band  22 # energy  -71.13801010 # occ.  2.00000000
 
ion      s      p      d    tot
  1  0.000  0.000  0.000  0.000
  2  0.000  0.000  0.000  0.000
  3  0.000  0.001  0.000  0.001
  4  0.000  0.000  0.000  0.000
  5  0.000  0.197  0.000  0.197
  6  0.000  0.067  0.000  0.067
  7  0.000  0.468  0.000  0.468
  8  0.000  0.183  0.000  0.183
  9  0.000  0.004  0.000  0.004
 10  0.000  0.001  0.000  0.001
 11  0.000  0.006  0.000  0.006
 12  0.000  0.069  0.000  0.069
 13  0.000  0.000  0.000  0.000
 14  0.000  0.000  0.000  0.000
 15  0.000  0.000  0.000  0.000
 16  0.000  0.000  0.000  0.000
 17  0.000  0.000  0.000  0.000
tot  0.000  0.997  0.000  0.997
 
band  23 # energy  -71.11709687 # occ.  2.00000000
 
ion      s      p      d    tot
  1  0.000  0.003  0.000  0.003
  2  0.000  0.003  0.000  0.003
  3  0.000  0.003  0.000  0.003
  4  0.000  0.000  0.000  0.000
  5  0.000  0.580  0.000  0.580
  6  0.000  0.028  0.000  0.028
  7  0.000  0.028  0.000  0.028
  8  0.000  0.028  0.000  0.028
  9  0.000  0.106  0.000  0.106
 10  0.000  0.106  0.000  0.106
 11  0.000  0.109  0.000  0.109
 12  0.000  0.002  0.000  0.002
 13  0.000  0.000  0.000  0.000
 14  0.000  0.000  0.000  0.000
 15  0.000  0.000  0.000  0.000
 16  0.000  0.000  0.000  0.000
 17  0.000  0.000  0.000  0.000
tot  0.000  0.997  0.000  0.997
 
band  24 # energy  -71.10946416 # occ.  2.00000000
 
ion      s      p      d    tot
  1  0.000  0.000  0.000  0.000
  2  0.000  0.000  0.000  0.000
  3  0.000  0.000  0.000  0.000
  4  0.000  0.000  0.000  0.000
  5  0.000  0.507  0.000  0.507
  6  0.000  0.234  0.000  0.234
  7  0.000  0.136  0.000  0.136
  8  0.000  0.112  0.000  0.112
  9  0.000  0.004  0.000  0.004
 10  0.000  0.004  0.000  0.004
 11  0.000  0.001  0.000  0.001
 12  0.000  0.000  0.000  0.000
 13  0.000  0.000  0.000  0.000
 14  0.000  0.000  0.000  0.000
 15  0.000  0.000  0.000  0.000
 16  0.000  0.000  0.000  0.000
 17  0.000  0.000  0.000  0.000
tot  0.000  0.998  0.000  0.998
 
band  25 # energy  -71.10935891 # occ.  2.00000000
 
ion      s      p      d    tot
  1  0.000  0.000  0.000  0.000
  2  0.000  0.000  0.000  0.000
  3  0.000  0.000  0.000  0.000
  4  0.000  0.000  0.000  0.000
  5  0.000  0.506  0.000  0.506
  6  0.000  0.088  0.000  0.088
  7  0.000  0.186  0.000  0.186
  8  0.000  0.209  0.000  0.209
  9  0.000  0.001  0.000  0.001
 10  0.000  0.002  0.000  0.002
 11  0.000  0.005  0.000  0.005
 12  0.000  0.000  0.000  0.000
 13  0.000  0.000  0.000  0.000
 14  0.000  0.000  0.000  0.000
 15  0.000  0.000  0.000  0.000
 16  0.000  0.000  0.000  0.000
 17  0.000  0.000  0.000  0.000
tot  0.000  0.998  0.000  0.998
 
band  26 # energy  -71.08401796 # occ.  2.00000000
 
ion      s      p      d    tot
  1  0.000  0.000  0.000  0.000
  2  0.000  0.000  0.000  0.000
  3  0.000  0.000  0.000  0.000
  4  0.000  0.000  0.000  0.000
  5  0.000  0.001  0.000  0.001
  6  0.000  0.013  0.000  0.013
  7  0.000  0.008  0.000  0.008
  8  0.000  0.008  0.000  0.008
  9  0.000  0.152  0.000  0.152
 10  0.000  0.150  0.000  0.150
 11  0.000  0.598  0.000  0.598
 12  0.000  0.066  0.000  0.066
 13  0.000  0.000  0.000  0.000
 14  0.000  0.000  0.000  0.000
 15  0.000  0.000  0.000  0.000
 16  0.000  0.000  0.000  0.000
 17  0.000  0.000  0.000  0.000
tot  0.000  0.997  0.000  0.997
 
band  27 # energy  -71.08363384 # occ.  2.00000000
 
ion      s      p      d    tot
  1  0.000  0.000  0.000  0.000
  2  0.000  0.000  0.000  0.000
  3  0.000  0.000  0.000  0.000
  4  0.000  0.000  0.000  0.000
  5  0.000  0.001  0.000  0.001
  6  0.000  0.005  0.000  0.005
  7  0.000  0.012  0.000  0.012
  8  0.000  0.011  0.000  0.011
  9  0.000  0.438  0.000  0.438
 10  0.000  0.440  0.000  0.440
 11  0.000  0.022  0.000  0.022
 12  0.000  0.067  0.000  0.067
 13  0.000  0.000  0.000  0.000
 14  0.000  0.000  0.000  0.000
 15  0.000  0.000  0.000  0.000
 16  0.000  0.000  0.000  0.000
 17  0.000  0.000  0.000  0.000
tot  0.000  0.997  0.000  0.997
 
band  28 # energy  -71.07818653 # occ.  2.00000000
 
ion      s      p      d    tot
  1  0.000  0.001  0.000  0.001
  2  0.000  0.001  0.000  0.001
  3  0.000  0.001  0.000  0.001
  4  0.000  0.000  0.000  0.000
  5  0.000  0.189  0.000  0.189
  6  0.000  0.008  0.000  0.008
  7  0.000  0.007  0.000  0.007
  8  0.000  0.007  0.000  0.007
  9  0.000  0.264  0.000  0.264
 10  0.000  0.263  0.000  0.263
 11  0.000  0.252  0.000  0.252
 12  0.000  0.001  0.000  0.001
 13  0.000  0.000  0.000  0.000
 14  0.000  0.000  0.000  0.000
 15  0.000  0.000  0.000  0.000
 16  0.000  0.001  0.000  0.001
 17  0.000  0.000  0.000  0.000
tot  0.000  0.997  0.000  0.997
 
band  29 # energy  -71.07300789 # occ.  2.00000000
 
ion      s      p      d    tot
  1  0.000  0.000  0.000  0.000
  2  0.000  0.000  0.000  0.000
  3  0.000  0.000  0.000  0.000
  4  0.000  0.000  0.000  0.000
  5  0.000  0.013  0.000  0.013
  6  0.000  0.001  0.000  0.001
  7  0.000  0.002  0.000  0.002
  8  0.000  0.002  0.000  0.002
  9  0.000  0.306  0.000  0.306
 10  0.000  0.288  0.000  0.288
 11  0.000  0.139  0.000  0.139
 12  0.000  0.247  0.000  0.247
 13  0.000  0.000  0.000  0.000
 14  0.000  0.000  0.000  0.000
 15  0.000  0.000  0.000  0.000
 16  0.000  0.000  0.000  0.000
 17  0.000  0.000  0.000  0.000
tot  0.000  0.997  0.000  0.997
 
band  30 # energy  -71.07295030 # occ.  2.00000000
 
ion      s      p      d    tot
  1  0.000  0.000  0.000  0.000
  2  0.000  0.000  0.000  0.000
  3  0.000  0.000  0.000  0.000
  4  0.000  0.000  0.000  0.000
  5  0.000  0.013  0.000  0.013
  6  0.000  0.002  0.000  0.002
  7  0.000  0.001  0.000  0.001
  8  0.000  0.001  0.000  0.001
  9  0.000  0.186  0.000  0.186
 10  0.000  0.205  0.000  0.205
 11  0.000  0.343  0.000  0.343
 12  0.000  0.246  0.000  0.246
 13  0.000  0.000  0.000  0.000
 14  0.000  0.000  0.000  0.000
 15  0.000  0.000  0.000  0.000
 16  0.000  0.000  0.000  0.000
 17  0.000  0.000  0.000  0.000
tot  0.000  0.997  0.000  0.997
 
band  31 # energy  -71.05998918 # occ.  2.00000000
 
ion      s      p      d    tot
  1  0.000  0.000  0.000  0.000
  2  0.000  0.000  0.000  0.000
  3  0.000  0.000  0.000  0.000
  4  0.000  0.000  0.000  0.000
  5  0.000  0.000  0.000  0.000
  6  0.000  0.003  0.000  0.003
  7  0.000  0.003  0.000  0.003
  8  0.000  0.003  0.000  0.003
  9  0.000  0.331  0.000  0.331
 10  0.000  0.330  0.000  0.330
 11  0.000  0.328  0.000  0.328
 12  0.000  0.000  0.000  0.000
 13  0.000  0.000  0.000  0.000
 14  0.000  0.000  0.000  0.000
 15  0.000  0.000  0.000  0.000
 16  0.000  0.000  0.000  0.000
 17  0.000  0.000  0.000  0.000
tot  0.000  0.997  0.000  0.997
 
band  32 # energy  -71.04398687 # occ.  2.00000000
 
ion      s      p      d    tot
  1  0.000  0.000  0.000  0.000
  2  0.000  0.000  0.000  0.000
  3  0.000  0.000  0.000  0.000
  4  0.000  0.000  0.000  0.000
  5  0.000  0.004  0.000  0.004
  6  0.000  0.001  0.000  0.001
  7  0.000  0.001  0.000  0.001
  8  0.000  0.001  0.000  0.001
  9  0.000  0.326  0.000  0.326
 10  0.000  0.316  0.000  0.316
 11  0.000  0.247  0.000  0.247
 12  0.000  0.102  0.000  0.102
 13  0.000  0.000  0.000  0.000
 14  0.000  0.000  0.000  0.000
 15  0.000  0.000  0.000  0.000
 16  0.000  0.000  0.000  0.000
 17  0.000  0.000  0.000  0.000
tot  0.000  0.998  0.000  0.998
 
band  33 # energy  -71.04384697 # occ.  2.00000000
 
ion      s      p      d    tot
  1  0.000  0.000  0.000  0.000
  2  0.000  0.000  0.000  0.000
  3  0.000  0.000  0.000  0.000
  4  0.000  0.000  0.000  0.000
  5  0.000  0.004  0.000  0.004
  6  0.000  0.001  0.000  0.001
  7  0.000  0.001  0.000  0.001
  8  0.000  0.001  0.000  0.001
  9  0.000  0.270  0.000  0.270
 10  0.000  0.280  0.000  0.280
 11  0.000  0.336  0.000  0.336
 12  0.000  0.104  0.000  0.104
 13  0.000  0.000  0.000  0.000
 14  0.000  0.000  0.000  0.000
 15  0.000  0.000  0.000  0.000
 16  0.000  0.000  0.000  0.000
 17  0.000  0.000  0.000  0.000
tot  0.000  0.998  0.000  0.998
 
band  34 # energy  -70.95698473 # occ.  2.00000000
 
ion      s      p      d    tot
  1  0.000  0.091  0.000  0.091
  2  0.000  0.121  0.000  0.121
  3  0.000  0.339  0.000  0.339
  4  0.000  0.437  0.000  0.437
  5  0.000  0.000  0.000  0.000
  6  0.000  0.000  0.000  0.000
  7  0.000  0.003  0.000  0.003
  8  0.000  0.004  0.000  0.004
  9  0.000  0.000  0.000  0.000
 10  0.000  0.000  0.000  0.000
 11  0.000  0.000  0.000  0.000
 12  0.000  0.000  0.000  0.000
 13  0.000  0.000  0.000  0.000
 14  0.000  0.000  0.000  0.000
 15  0.000  0.000  0.000  0.000
 16  0.000  0.000  0.000  0.000
 17  0.000  0.000  0.000  0.000
tot  0.000  0.996  0.000  0.996
 
band  35 # energy  -70.95688764 # occ.  2.00000000
 
ion      s      p      d    tot
  1  0.000  0.276  0.000  0.276
  2  0.000  0.246  0.000  0.246
  3  0.000  0.030  0.000  0.030
  4  0.000  0.437  0.000  0.437
  5  0.000  0.000  0.000  0.000
  6  0.000  0.005  0.000  0.005
  7  0.000  0.002  0.000  0.002
  8  0.000  0.001  0.000  0.001
  9  0.000  0.000  0.000  0.000
 10  0.000  0.000  0.000  0.000
 11  0.000  0.000  0.000  0.000
 12  0.000  0.000  0.000  0.000
 13  0.000  0.000  0.000  0.000
 14  0.000  0.000  0.000  0.000
 15  0.000  0.000  0.000  0.000
 16  0.000  0.000  0.000  0.000
 17  0.000  0.000  0.000  0.000
tot  0.000  0.996  0.000  0.996
 
band  36 # energy  -70.94378492 # occ.  2.00000000
 
ion      s      p      d    tot
  1  0.000  0.328  0.000  0.328
  2  0.000  0.328  0.000  0.328
  3  0.000  0.329  0.000  0.329
  4  0.000  0.000  0.000  0.000
  5  0.000  0.008  0.000  0.008
  6  0.000  0.001  0.000  0.001
  7  0.000  0.001  0.000  0.001
  8  0.000  0.001  0.000  0.001
  9  0.000  0.000  0.000  0.000
 10  0.000  0.000  0.000  0.000
 11  0.000  0.000  0.000  0.000
 12  0.000  0.000  0.000  0.000
 13  0.000  0.000  0.000  0.000
 14  0.000  0.000  0.000  0.000
 15  0.000  0.000  0.000  0.000
 16  0.000  0.000  0.000  0.000
 17  0.000  0.000  0.000  0.000
tot  0.000  0.996  0.000  0.996
 
band  37 # energy  -70.88016161 # occ.  2.00000000
 
ion      s      p      d    tot
  1  0.000  0.151  0.000  0.151
  2  0.000  0.136  0.000  0.136
  3  0.000  0.314  0.000  0.314
  4  0.000  0.395  0.000  0.395
  5  0.000  0.000  0.000  0.000
  6  0.000  0.000  0.000  0.000
  7  0.000  0.000  0.000  0.000
  8  0.000  0.000  0.000  0.000
  9  0.000  0.000  0.000  0.000
 10  0.000  0.000  0.000  0.000
 11  0.000  0.000  0.000  0.000
 12  0.000  0.000  0.000  0.000
 13  0.000  0.000  0.000  0.000
 14  0.000  0.000  0.000  0.000
 15  0.000  0.000  0.000  0.000
 16  0.000  0.000  0.000  0.000
 17  0.000  0.000  0.000  0.000
tot  0.000  0.997  0.000  0.997
 
band  38 # energy  -70.88011516 # occ.  2.00000000
 
ion      s      p      d    tot
  1  0.000  0.090  0.000  0.090
  2  0.000  0.256  0.000  0.256
  3  0.000  0.222  0.000  0.222
  4  0.000  0.428  0.000  0.428
  5  0.000  0.000  0.000  0.000
  6  0.000  0.000  0.000  0.000
  7  0.000  0.000  0.000  0.000
  8  0.000  0.000  0.000  0.000
  9  0.000  0.000  0.000  0.000
 10  0.000  0.000  0.000  0.000
 11  0.000  0.000  0.000  0.000
 12  0.000  0.000  0.000  0.000
 13  0.000  0.000  0.000  0.000
 14  0.000  0.000  0.000  0.000
 15  0.000  0.000  0.000  0.000
 16  0.000  0.000  0.000  0.000
 17  0.000  0.000  0.000  0.000
tot  0.000  0.997  0.000  0.997
 
band  39 # energy  -70.88007981 # occ.  2.00000000
 
ion      s      p      d    tot
  1  0.000  0.451  0.000  0.451
  2  0.000  0.299  0.000  0.299
  3  0.000  0.158  0.000  0.158
  4  0.000  0.088  0.000  0.088
  5  0.000  0.000  0.000  0.000
  6  0.000  0.000  0.000  0.000
  7  0.000  0.000  0.000  0.000
  8  0.000  0.000  0.000  0.000
  9  0.000  0.000  0.000  0.000
 10  0.000  0.000  0.000  0.000
 11  0.000  0.000  0.000  0.000
 12  0.000  0.000  0.000  0.000
 13  0.000  0.000  0.000  0.000
 14  0.000  0.000  0.000  0.000
 15  0.000  0.000  0.000  0.000
 16  0.000  0.000  0.000  0.000
 17  0.000  0.000  0.000  0.000
tot  0.000  0.997  0.000  0.997
 
band  40 # energy  -70.85204424 # occ.  2.00000000
 
ion      s      p      d    tot
  1  0.000  0.284  0.000  0.284
  2  0.000  0.207  0.000  0.207
  3  0.000  0.404  0.000  0.404
  4  0.000  0.102  0.000  0.102
  5  0.000  0.000  0.000  0.000
  6  0.000  0.000  0.000  0.000
  7  0.000  0.000  0.000  0.000
  8  0.000  0.000  0.000  0.000
  9  0.000  0.000  0.000  0.000
 10  0.000  0.000  0.000  0.000
 11  0.000  0.000  0.000  0.000
 12  0.000  0.000  0.000  0.000
 13  0.000  0.000  0.000  0.000
 14  0.000  0.000  0.000  0.000
 15  0.000  0.000  0.000  0.000
 16  0.000  0.000  0.000  0.000
 17  0.000  0.000  0.000  0.000
tot  0.000  0.998  0.000  0.998
 
band  41 # energy  -70.85199375 # occ.  2.00000000
 
ion      s      p      d    tot
  1  0.000  0.315  0.000  0.315
  2  0.000  0.392  0.000  0.392
  3  0.000  0.190  0.000  0.190
  4  0.000  0.101  0.000  0.101
  5  0.000  0.000  0.000  0.000
  6  0.000  0.000  0.000  0.000
  7  0.000  0.000  0.000  0.000
  8  0.000  0.000  0.000  0.000
  9  0.000  0.000  0.000  0.000
 10  0.000  0.000  0.000  0.000
 11  0.000  0.000  0.000  0.000
 12  0.000  0.000  0.000  0.000
 13  0.000  0.000  0.000  0.000
 14  0.000  0.000  0.000  0.000
 15  0.000  0.000  0.000  0.000
 16  0.000  0.000  0.000  0.000
 17  0.000  0.000  0.000  0.000
tot  0.000  0.998  0.000  0.998
 
band  42 # energy  -70.83280064 # occ.  2.00000000
 
ion      s      p      d    tot
  1  0.000  0.139  0.000  0.139
  2  0.000  0.139  0.000  0.139
  3  0.000  0.144  0.000  0.144
  4  0.000  0.566  0.000  0.566
  5  0.000  0.002  0.000  0.002
  6  0.000  0.002  0.000  0.002
  7  0.000  0.002  0.000  0.002
  8  0.000  0.002  0.000  0.002
  9  0.000  0.000  0.000  0.000
 10  0.000  0.000  0.000  0.000
 11  0.000  0.000  0.000  0.000
 12  0.000  0.000  0.000  0.000
 13  0.000  0.000  0.000  0.000
 14  0.000  0.000  0.000  0.000
 15  0.000  0.000  0.000  0.000
 16  0.000  0.000  0.000  0.000
 17  0.000  0.000  0.000  0.000
tot  0.000  0.997  0.000  0.997
 
band  43 # energy  -70.82360142 # occ.  2.00000000
 
ion      s      p      d    tot
  1  0.000  0.180  0.000  0.180
  2  0.000  0.180  0.000  0.180
  3  0.000  0.206  0.000  0.206
  4  0.000  0.426  0.000  0.426
  5  0.000  0.003  0.000  0.003
  6  0.000  0.001  0.000  0.001
  7  0.000  0.001  0.000  0.001
  8  0.000  0.001  0.000  0.001
  9  0.000  0.000  0.000  0.000
 10  0.000  0.000  0.000  0.000
 11  0.000  0.000  0.000  0.000
 12  0.000  0.000  0.000  0.000
 13  0.000  0.000  0.000  0.000
 14  0.000  0.000  0.000  0.000
 15  0.000  0.000  0.000  0.000
 16  0.000  0.000  0.000  0.000
 17  0.000  0.000  0.000  0.000
tot  0.000  0.997  0.000  0.997
 
band  44 # energy  -70.81992116 # occ.  2.00000000
 
ion      s      p      d    tot
  1  0.000  0.177  0.000  0.177
  2  0.000  0.175  0.000  0.175
  3  0.000  0.642  0.000  0.642
  4  0.000  0.000  0.000  0.000
  5  0.000  0.001  0.000  0.001
  6  0.000  0.001  0.000  0.001
  7  0.000  0.001  0.000  0.001
  8  0.000  0.001  0.000  0.001
  9  0.000  0.000  0.000  0.000
 10  0.000  0.000  0.000  0.000
 11  0.000  0.000  0.000  0.000
 12  0.000  0.000  0.000  0.000
 13  0.000  0.000  0.000  0.000
 14  0.000  0.000  0.000  0.000
 15  0.000  0.000  0.000  0.000
 16  0.000  0.000  0.000  0.000
 17  0.000  0.000  0.000  0.000
tot  0.000  0.997  0.000  0.997
 
band  45 # energy  -70.81975964 # occ.  2.00000000
 
ion      s      p      d    tot
  1  0.000  0.496  0.000  0.496
  2  0.000  0.498  0.000  0.498
  3  0.000  0.000  0.000  0.000
  4  0.000  0.000  0.000  0.000
  5  0.000  0.001  0.000  0.001
  6  0.000  0.001  0.000  0.001
  7  0.000  0.001  0.000  0.001
  8  0.000  0.001  0.000  0.001
  9  0.000  0.000  0.000  0.000
 10  0.000  0.000  0.000  0.000
 11  0.000  0.000  0.000  0.000
 12  0.000  0.000  0.000  0.000
 13  0.000  0.000  0.000  0.000
 14  0.000  0.000  0.000  0.000
 15  0.000  0.000  0.000  0.000
 16  0.000  0.000  0.000  0.000
 17  0.000  0.000  0.000  0.000
tot  0.000  0.997  0.000  0.997
 