<?xml version="1.0" encoding="ISO-8859-1"?>
<modeling>
 <generator>
  <i name="program" type="string">vasp </i>
  <i name="version" type="string">5.3.5  </i>
  <i name="subversion" type="string">31Mar14 (build Oct 26 2016 13:29:44) complex                          parallel </i>
  <i name="platform" type="string">GRP7IFC17NORMALVTST </i>
  <i name="date" type="string">2017 07 12 </i>
  <i name="time" type="string">15:59:46 </i>
 </generator>
 <incar>
  <i type="string" name="PREC">accurate</i>
  <i type="int" name="NELMIN">     5</i>
  <i type="int" name="IBRION">     2</i>
  <i name="EDIFF">      0.00001000</i>
  <i type="int" name="NSW">   150</i>
  <i name="ENCUT">    400.00000000</i>
  <i name="POTIM">      0.50000000</i>
  <i type="logical" name="LREAL"> F  </i>
  <i type="int" name="ISMEAR">     0</i>
  <i name="SIGMA">      0.10000000</i>
  <i type="logical" name="LWAVE"> F  </i>
  <i type="logical" name="LCHARG"> F  </i>
  <i type="logical" name="LORBIT"> F  </i>
  <i type="logical" name="LASPH"> T  </i>
  <i type="logical" name="LDIPOL"> T  </i>
  <i type="int" name="IDIPOL">     3</i>
  <i type="logical" name="LASPH"> T  </i>
 </incar>
 <kpoints>
  <generation param="Gamma">
   <v type="int" name="divisions">       6        6        1 </v>
   <v name="usershift">      0.00000000       0.00000000       0.00000000 </v>
   <v name="genvec1">      0.16666667       0.00000000       0.00000000 </v>
   <v name="genvec2">      0.00000000       0.16666667       0.00000000 </v>
   <v name="genvec3">      0.00000000       0.00000000       1.00000000 </v>
   <v name="shift">      0.00000000       0.00000000       0.00000000 </v>
  </generation>
  <varray name="kpointlist" >
   <v>       0.00000000       0.00000000       0.00000000 </v>
   <v>       0.16666667      -0.00000000       0.00000000 </v>
   <v>       0.33333333       0.00000000       0.00000000 </v>
   <v>       0.50000000      -0.00000000       0.00000000 </v>
   <v>       0.00000000       0.16666667       0.00000000 </v>
   <v>       0.33333333       0.16666667       0.00000000 </v>
   <v>       0.50000000       0.16666667       0.00000000 </v>
   <v>       0.00000000       0.33333333       0.00000000 </v>
   <v>       0.16666667       0.33333333       0.00000000 </v>
   <v>       0.50000000       0.33333333       0.00000000 </v>
   <v>      -0.33333333       0.33333333       0.00000000 </v>
   <v>       0.00000000       0.50000000       0.00000000 </v>
   <v>       0.16666667       0.50000000       0.00000000 </v>
  </varray>
  <varray name="weights" >
   <v>       0.02777778 </v>
   <v>       0.05555556 </v>
   <v>       0.05555556 </v>
   <v>       0.02777778 </v>
   <v>       0.11111111 </v>
   <v>       0.11111111 </v>
   <v>       0.11111111 </v>
   <v>       0.11111111 </v>
   <v>       0.05555556 </v>
   <v>       0.11111111 </v>
   <v>       0.05555556 </v>
   <v>       0.05555556 </v>
   <v>       0.11111111 </v>
  </varray>
 </kpoints>
 <parameters>
  <separator name="general" >
   <i type="string" name="SYSTEM">unknown system</i>
   <i type="logical" name="LCOMPAT"> F  </i>
  </separator>
  <separator name="electronic" >
   <i type="string" name="PREC">accura</i>
   <i name="ENMAX">    400.00000000</i>
   <i name="ENAUG">    758.23300000</i>
   <i name="EDIFF">      0.00001000</i>
   <i type="int" name="IALGO">    38</i>
   <i type="int" name="IWAVPR">    11</i>
   <i type="int" name="NBANDS">   168</i>
   <i name="NELECT">    276.00000000</i>
   <i type="int" name="TURBO">     0</i>
   <i type="int" name="IRESTART">     0</i>
   <i type="int" name="NREBOOT">     0</i>
   <i type="int" name="NMIN">     0</i>
   <i name="EREF">      0.00000000</i>
   <separator name="electronic smearing" >
    <i type="int" name="ISMEAR">     0</i>
    <i name="SIGMA">      0.10000000</i>
    <i name="KSPACING">      0.50000000</i>
    <i type="logical" name="KGAMMA"> T  </i>
   </separator>
   <separator name="electronic projectors" >
    <i type="logical" name="LREAL"> F  </i>
    <v name="ROPT">      0.00000000      0.00000000</v>
    <i type="int" name="LMAXPAW">  -100</i>
    <i type="int" name="LMAXMIX">     2</i>
    <i type="logical" name="NLSPLINE"> F  </i>
   </separator>
   <separator name="electronic startup" >
    <i type="int" name="ISTART">     0</i>
    <i type="int" name="ICHARG">     2</i>
    <i type="int" name="INIWAV">     1</i>
   </separator>
   <separator name="electronic spin" >
    <i type="int" name="ISPIN">     1</i>
    <i type="logical" name="LNONCOLLINEAR"> F  </i>
    <v name="MAGMOM">      1.00000000      1.00000000      1.00000000      1.00000000      1.00000000      1.00000000      1.00000000      1.00000000      1.00000000      1.00000000      1.00000000      1.00000000      1.00000000      1.00000000      1.00000000      1.00000000      1.00000000</v>
    <i name="NUPDOWN">     -1.00000000</i>
    <i type="logical" name="LSORBIT"> F  </i>
    <v name="SAXIS">      0.00000000      0.00000000      1.00000000</v>
    <i type="logical" name="LSPIRAL"> F  </i>
    <v name="QSPIRAL">      0.00000000      0.00000000      0.00000000</v>
    <i type="logical" name="LZEROZ"> F  </i>
   </separator>
   <separator name="electronic exchange-correlation" >
    <i type="logical" name="LASPH"> T  </i>
    <i type="logical" name="LMETAGGA"> F  </i>
   </separator>
   <separator name="electronic convergence" >
    <i type="int" name="NELM">    60</i>
    <i type="int" name="NELMDL">    -5</i>
    <i type="int" name="NELMIN">     5</i>
    <i name="ENINI">    400.00000000</i>
    <separator name="electronic convergence detail" >
     <i type="logical" name="LDIAG"> T  </i>
     <i type="logical" name="LSUBROT"> F  </i>
     <i name="WEIMIN">      0.00100000</i>
     <i name="EBREAK">      0.00000001</i>
     <i name="DEPER">      0.30000000</i>
     <i type="int" name="NRMM">     4</i>
     <i name="TIME">      0.40000000</i>
    </separator>
   </separator>
   <separator name="electronic mixer" >
    <i name="AMIX">      0.40000000</i>
    <i name="BMIX">      1.00000000</i>
    <i name="AMIN">      0.10000000</i>
    <i name="AMIX_MAG">      1.60000000</i>
    <i name="BMIX_MAG">      1.00000000</i>
    <separator name="electronic mixer details" >
     <i type="int" name="IMIX">     4</i>
     <i type="int" name="MAXMIX">   -45</i>
     <i name="WC">    100.00000000</i>
     <i type="int" name="INIMIX">     1</i>
     <i type="int" name="MIXPRE">     1</i>
     <i type="int" name="MREMOVE">     5</i>
    </separator>
   </separator>
   <separator name="electronic dipolcorrection" >
    <i type="logical" name="LDIPOL"> T  </i>
    <i type="logical" name="LMONO"> F  </i>
    <i type="int" name="IDIPOL">     3</i>
    <i name="EPSILON">      1.00000000</i>
    <v name="DIPOL">   -100.00000000   -100.00000000   -100.00000000</v>
    <i name="EFIELD">      0.00000000</i>
   </separator>
  </separator>
  <separator name="grids" >
   <i type="int" name="NGX">    36</i>
   <i type="int" name="NGY">    36</i>
   <i type="int" name="NGZ">   180</i>
   <i type="int" name="NGXF">    72</i>
   <i type="int" name="NGYF">    72</i>
   <i type="int" name="NGZF">   360</i>
   <i type="logical" name="ADDGRID"> F  </i>
  </separator>
  <separator name="ionic" >
   <i type="int" name="NSW">   150</i>
   <i type="int" name="IBRION">     2</i>
   <i type="int" name="ISIF">     2</i>
   <i name="PSTRESS">      0.00000000</i>
   <i name="EDIFFG">      0.00010000</i>
   <i type="int" name="NFREE">     1</i>
   <i name="POTIM">      0.50000000</i>
   <i name="SMASS">     -3.00000000</i>
   <i name="SCALEE">      1.00000000</i>
  </separator>
  <separator name="ionic md" >
   <i name="TEBEG">      0.00010000</i>
   <i name="TEEND">      0.00010000</i>
   <i type="int" name="NBLOCK">     1</i>
   <i type="int" name="KBLOCK">   150</i>
   <i type="int" name="NPACO">   256</i>
   <i name="APACO">     16.00000000</i>
  </separator>
  <separator name="symmetry" >
   <i type="int" name="ISYM">     2</i>
   <i name="SYMPREC">      0.00001000</i>
  </separator>
  <separator name="dos" >
   <i type="logical" name="LORBIT"> F  </i>
   <v name="RWIGS">     -1.00000000     -1.00000000</v>
   <i type="int" name="NEDOS">   301</i>
   <i name="EMIN">     10.00000000</i>
   <i name="EMAX">    -10.00000000</i>
   <i name="EFERMI">      0.00000000</i>
  </separator>
  <separator name="writing" >
   <i type="int" name="NWRITE">     2</i>
   <i type="logical" name="LWAVE"> F  </i>
   <i type="logical" name="LCHARG"> F  </i>
   <i type="logical" name="LPARD"> F  </i>
   <i type="logical" name="LVTOT"> F  </i>
   <i type="logical" name="LVHAR"> F  </i>
   <i type="logical" name="LELF"> F  </i>
   <i type="logical" name="LOPTICS"> F  </i>
   <v name="STM">      0.00000000      0.00000000      0.00000000      0.00000000      0.00000000      0.00000000      0.00000000</v>
  </separator>
  <separator name="performance" >
   <i type="int" name="NPAR">     4</i>
   <i type="int" name="NSIM">     4</i>
   <i type="int" name="NBLK">    -1</i>
   <i type="logical" name="LPLANE"> T  </i>
   <i type="logical" name="LSCALAPACK"> T  </i>
   <i type="logical" name="LSCAAWARE"> F  </i>
   <i type="logical" name="LSCALU"> F  </i>
   <i type="logical" name="LASYNC"> F  </i>
   <i type="logical" name="LORBITALREAL"> F  </i>
  </separator>
  <separator name="miscellaneous" >
   <i type="int" name="IDIOT">     3</i>
   <i type="logical" name="LMUSIC"> F  </i>
   <v name="POMASS">     63.54600000     12.01100000</v>
   <v name="DARWINR">      0.00000000      0.00000000</v>
   <v name="DARWINV">      1.00000000      1.00000000</v>
   <i type="logical" name="LCORR"> T  </i>
  </separator>
  <i type="logical" name="GGA_COMPAT"> T  </i>
  <i type="logical" name="LBERRY"> F  </i>
  <i type="int" name="ICORELEVEL">     0</i>
  <i type="logical" name="LDAU"> F  </i>
  <i type="int" name="I_CONSTRAINED_M">     0</i>
  <separator name="electronic exchange-correlation" >
   <i type="string" name="GGA">--</i>
   <i type="int" name="VOSKOWN">     0</i>
   <i type="logical" name="LHFCALC"> F  </i>
   <i type="string" name="PRECFOCK"></i>
   <i type="logical" name="LSYMGRAD"> F  </i>
   <i type="logical" name="LHFONE"> F  </i>
   <i type="logical" name="LRHFCALC"> F  </i>
   <i type="logical" name="LTHOMAS"> F  </i>
   <i type="logical" name="LMODELHF"> F  </i>
   <i name="ENCUT4O">     -1.00000000</i>
   <i type="int" name="EXXOEP">     0</i>
   <i type="int" name="FOURORBIT">     0</i>
   <i name="AEXX">      0.00000000</i>
   <i name="HFALPHA">      0.00000000</i>
   <i name="MCALPHA">      0.00000000</i>
   <i name="ALDAX">      1.00000000</i>
   <i name="AGGAX">      1.00000000</i>
   <i name="ALDAC">      1.00000000</i>
   <i name="AGGAC">      1.00000000</i>
   <i type="int" name="NKREDX">     1</i>
   <i type="int" name="NKREDY">     1</i>
   <i type="int" name="NKREDZ">     1</i>
   <i type="logical" name="SHIFTRED"> F  </i>
   <i type="logical" name="ODDONLY"> F  </i>
   <i type="logical" name="EVENONLY"> F  </i>
   <i type="int" name="LMAXFOCK">     0</i>
   <i type="int" name="NMAXFOCKAE">     0</i>
   <i type="logical" name="LFOCKAEDFT"> F  </i>
   <i name="HFSCREEN">      0.00000000</i>
   <i name="HFSCREENC">      0.00000000</i>
   <i type="int" name="NBANDSGWLOW">     0</i>
  </separator>
  <separator name="vdW DFT" >
   <i type="logical" name="LUSE_VDW"> F  </i>
   <i name="Zab_VDW">     -0.84910000</i>
   <i name="PARAM1">      0.12340000</i>
   <i name="PARAM2">      1.00000000</i>
   <i name="PARAM3">      0.00000000</i>
  </separator>
  <separator name="model GW" >
   <i type="int" name="MODEL_GW">     0</i>
   <i name="MODEL_EPS0">     20.18421637</i>
   <i name="MODEL_ALPHA">      1.00000000</i>
  </separator>
  <separator name="linear response parameters" >
   <i type="logical" name="LEPSILON"> F  </i>
   <i type="logical" name="LRPA"> F  </i>
   <i type="logical" name="LNABLA"> F  </i>
   <i type="logical" name="LVEL"> F  </i>
   <i type="int" name="KINTER">     0</i>
   <i name="CSHIFT">      0.10000000</i>
   <i name="OMEGAMAX">     -1.00000000</i>
   <i name="DEG_THRESHOLD">      0.00200000</i>
  </separator>
  <separator name="orbital magnetization" >
   <i type="logical" name="NUCIND"> F  </i>
   <v name="MAGPOS">      0.00000000      0.00000000      0.00000000</v>
   <i type="logical" name="LNICSALL"> T  </i>
   <i type="logical" name="ORBITALMAG"> F  </i>
   <i type="logical" name="LMAGBLOCH"> F  </i>
   <i type="logical" name="LCHIMAG"> F  </i>
   <i type="logical" name="LGAUGE"> T  </i>
   <i type="int" name="MAGATOM">     0</i>
   <v name="MAGDIPOL">      0.00000000      0.00000000      0.00000000</v>
   <v name="AVECCONST">      0.00000000      0.00000000      0.00000000</v>
  </separator>
  <separator name="response functions" >
   <i type="logical" name="LADDER"> F  </i>
   <i type="logical" name="LFXC"> F  </i>
   <i type="logical" name="LHARTREE"> T  </i>
   <i type="int" name="IBSE">     0</i>
   <i type="logical" name="LTCTE"> F  </i>
   <i type="logical" name="LTETE"> F  </i>
   <i type="logical" name="LTRIPLET"> F  </i>
   <i type="logical" name="LFXCEPS"> F  </i>
   <i type="logical" name="LFXHEG"> F  </i>
   <i type="logical" name="L2ORDER"> F  </i>
   <i type="logical" name="LUSEW"> F  </i>
   <i name="ENCUTGW">     -2.00000000</i>
   <i name="ENCUTGWSOFT">     -2.00000000</i>
   <i name="ENCUTLF">     -1.00000000</i>
   <i type="int" name="LMAXMP2">    -1</i>
   <i name="SCISSOR">      0.00000000</i>
   <i type="int" name="NOMEGA">     0</i>
   <i type="int" name="NOMEGAR">     0</i>
   <i type="int" name="NBANDSGW">    -1</i>
   <i type="int" name="NBANDSO">    -1</i>
   <i type="int" name="NBANDSV">    -1</i>
   <i type="int" name="NELM">     1</i>
   <i type="int" name="DIM">     3</i>
   <i type="int" name="ANTIRES">     0</i>
   <i name="OMEGAMAX">    -30.00000000</i>
   <i name="OMEGAMIN">    -30.00000000</i>
   <i name="OMEGATL">   -200.00000000</i>
   <i type="int" name="OMEGAGRID">     0</i>
   <i name="CSHIFT">     -0.10000000</i>
   <i type="logical" name="SELFENERGY"> F  </i>
   <i type="logical" name="LSPECTRAL"> F  </i>
   <i type="logical" name="ODDONLYGW"> F  </i>
   <i type="logical" name="EVENONLYGW"> F  </i>
   <i type="int" name="NKREDLFX">     1</i>
   <i type="int" name="NKREDLFY">     1</i>
   <i type="int" name="NKREDLFZ">     1</i>
   <i type="int" name="MAXMEM">  1800</i>
   <i type="int" name="TELESCOPE">     0</i>
   <i type="int" name="TAUPAR">     1</i>
  </separator>
  <separator name="External order field" >
   <i name="OFIELD_KAPPA">      0.00000000</i>
   <v name="OFIELD_K">      0.00000000      0.00000000      0.00000000</v>
   <i name="OFIELD_Q6_NEAR">      0.00000000</i>
   <i name="OFIELD_Q6_FAR">      0.00000000</i>
   <i name="OFIELD_A">      0.00000000</i>
  </separator>
 </parameters>
 <atominfo>
  <atoms>      17 </atoms>
  <types>       2 </types>
  <array name="atoms" >
   <dimension dim="1">ion</dimension>
   <field type="string">element</field>
   <field type="int">atomtype</field>
   <set>
    <rc><c>Cu</c><c>   1</c></rc>
    <rc><c>Cu</c><c>   1</c></rc>
    <rc><c>Cu</c><c>   1</c></rc>
    <rc><c>Cu</c><c>   1</c></rc>
    <rc><c>Cu</c><c>   1</c></rc>
    <rc><c>Cu</c><c>   1</c></rc>
    <rc><c>Cu</c><c>   1</c></rc>
    <rc><c>Cu</c><c>   1</c></rc>
    <rc><c>Cu</c><c>   1</c></rc>
    <rc><c>Cu</c><c>   1</c></rc>
    <rc><c>Cu</c><c>   1</c></rc>
    <rc><c>Cu</c><c>   1</c></rc>
    <rc><c>Cu</c><c>   1</c></rc>
    <rc><c>Cu</c><c>   1</c></rc>
    <rc><c>Cu</c><c>   1</c></rc>
    <rc><c>Cu</c><c>   1</c></rc>
    <rc><c>C </c><c>   2</c></rc>
   </set>
  </array>
  <array name="atomtypes" >
   <dimension dim="1">type</dimension>
   <field type="int">atomspertype</field>
   <field type="string">element</field>
   <field>mass</field>
   <field>valence</field>
   <field type="string">pseudopotential</field>
   <set>
    <rc><c>  16</c><c>Cu</c><c>     63.54600000</c><c>     17.00000000</c><c>  PAW_PBE Cu_pv 06Sep2000               </c></rc>
    <rc><c>   1</c><c>C </c><c>     12.01100000</c><c>      4.00000000</c><c>  PAW_PBE C 08Apr2002                   </c></rc>
   </set>
  </array>
 </atominfo>
 <structure name="initialpos" >
  <crystal>
   <varray name="basis" >
    <v>       5.01969481       0.00000000       0.00000000 </v>
    <v>       2.50984740       4.34718322       0.00000000 </v>
    <v>       0.00000000       0.00000000      26.20742226 </v>
   </varray>
   <i name="volume">    571.88613037 </i>
   <varray name="rec_basis" >
    <v>       0.19921530      -0.11501701       0.00000000 </v>
    <v>       0.00000000       0.23003401       0.00000000 </v>
    <v>       0.00000000       0.00000000       0.03815713 </v>
   </varray>
  </crystal>
  <varray name="positions" >
   <v>       0.00000000       0.00000000       0.00000000 </v>
   <v>       0.00000000       0.50000000       0.00000000 </v>
   <v>       0.50000000       0.00000000       0.00000000 </v>
   <v>       0.50000000       0.50000000       0.00000000 </v>
   <v>       0.16666667       0.16666667       0.07819471 </v>
   <v>       0.16666667       0.66666669       0.07819471 </v>
   <v>       0.66666669       0.16666667       0.07819471 </v>
   <v>       0.66666669       0.66666669       0.07819471 </v>
   <v>       0.33150195       0.33424904       0.15728548 </v>
   <v>       0.33150195       0.83424907       0.15728548 </v>
   <v>       0.83182595       0.33408705       0.15702669 </v>
   <v>       0.83182595       0.83408708       0.15702669 </v>
   <v>       0.98494900       0.00752550       0.23928406 </v>
   <v>       0.98494900       0.50752550       0.23928406 </v>
   <v>       0.50383311       0.99808344       0.23745072 </v>
   <v>       0.50383311       0.49808344       0.23745072 </v>
   <v>       0.18349913       0.15825044       0.28461970 </v>
  </varray>
  <varray name="selective"  type="logical" >
   <v type="logical" >  F  F  F </v>
   <v type="logical" >  F  F  F </v>
   <v type="logical" >  F  F  F </v>
   <v type="logical" >  F  F  F </v>
   <v type="logical" >  F  F  F </v>
   <v type="logical" >  F  F  F </v>
   <v type="logical" >  F  F  F </v>
   <v type="logical" >  F  F  F </v>
   <v type="logical" >  T  T  T </v>
   <v type="logical" >  T  T  T </v>
   <v type="logical" >  T  T  T </v>
   <v type="logical" >  T  T  T </v>
   <v type="logical" >  T  T  T </v>
   <v type="logical" >  T  T  T </v>
   <v type="logical" >  T  T  T </v>
   <v type="logical" >  T  T  T </v>
   <v type="logical" >  T  T  T </v>
  </varray>
  <nose>
   <v>      -3.00000000       0.00000000       0.00010000       0.00010000 </v>
  </nose>
 </structure>
 <calculation>
  <scstep>
   <time name="dav">   10.95   10.96</time>
   <time name="total">   11.32   11.35</time>
   <dipole>
    <v name="dipole">      0.00000000       0.00000000      -0.00000307 </v>
    <i name="Tr[quadrupol]">  -1341.23348330 </i>
    <i name="Echarged">      0.00000000 </i>
    <i name="Edipol_quadrupol">      0.00000000 </i>
    <i name="Eion">      0.00000000 </i>
   </dipole>
   <energy>
    <i name="alphaZ">    831.83599991 </i>
    <i name="ewald"> 282554.54657248 </i>
    <i name="hartreedc">-341740.58527659 </i>
    <i name="XCdc">   1745.15242685 </i>
    <i name="pawpsdc">  55786.54480181 </i>
    <i name="pawaedc"> -58178.33743849 </i>
    <i name="eentropy">     -0.02634561 </i>
    <i name="bandstr">  -4368.40394297 </i>
    <i name="atom">  66067.45489428 </i>
    <i name="e_fr_energy">   2698.18169167 </i>
    <i name="e_wo_entrp">   2698.20803727 </i>
    <i name="e_0_energy">   2698.19486447 </i>
   </energy>
  </scstep>
  <scstep>
   <time name="dav">    9.64    9.65</time>
   <time name="total">    9.65    9.70</time>
   <dipole>
    <v name="dipole">      0.00000000       0.00000000      -0.00000307 </v>
    <i name="Tr[quadrupol]">  -1341.23348330 </i>
    <i name="Echarged">      0.00000000 </i>
    <i name="Edipol_quadrupol">      0.00000000 </i>
    <i name="Eion">      0.00000000 </i>
   </dipole>
   <energy>
    <i name="e_fr_energy">     65.46754524 </i>
    <i name="e_wo_entrp">     65.50482280 </i>
    <i name="e_0_energy">     65.48618402 </i>
   </energy>
  </scstep>
  <scstep>
   <time name="dav">    9.90    9.91</time>
   <time name="total">    9.90   10.01</time>
   <dipole>
    <v name="dipole">      0.00000000       0.00000000      -0.00000307 </v>
    <i name="Tr[quadrupol]">  -1341.23348330 </i>
    <i name="Echarged">      0.00000000 </i>
    <i name="Edipol_quadrupol">      0.00000000 </i>
    <i name="Eion">      0.00000000 </i>
   </dipole>
   <energy>
    <i name="e_fr_energy">    -75.64076105 </i>
    <i name="e_wo_entrp">    -75.60039475 </i>
    <i name="e_0_energy">    -75.62057790 </i>
   </energy>
  </scstep>
  <scstep>
   <time name="dav">    9.73    9.74</time>
   <time name="total">    9.74    9.77</time>
   <dipole>
    <v name="dipole">      0.00000000       0.00000000      -0.00000307 </v>
    <i name="Tr[quadrupol]">  -1341.23348330 </i>
    <i name="Echarged">      0.00000000 </i>
    <i name="Edipol_quadrupol">      0.00000000 </i>
    <i name="Eion">      0.00000000 </i>
   </dipole>
   <energy>
    <i name="e_fr_energy">    -79.55268487 </i>
    <i name="e_wo_entrp">    -79.51122371 </i>
    <i name="e_0_energy">    -79.53195429 </i>
   </energy>
  </scstep>
  <scstep>
   <time name="dav">   10.38   10.39</time>
   <time name="total">   10.98   11.08</time>
   <dipole>
    <v name="dipole">      0.00000000       0.00000000      -0.00000307 </v>
    <i name="Tr[quadrupol]">  -1341.23348330 </i>
    <i name="Echarged">      0.00000000 </i>
    <i name="Edipol_quadrupol">      0.00000000 </i>
    <i name="Eion">      0.00000000 </i>
   </dipole>
   <energy>
    <i name="e_fr_energy">    -79.68877843 </i>
    <i name="e_wo_entrp">    -79.64727648 </i>
    <i name="e_0_energy">    -79.66802745 </i>
   </energy>
  </scstep>
  <scstep>
   <time name="dav">   10.30   10.31</time>
   <time name="total">   11.25   11.35</time>
   <dipole>
    <v name="dipole">      0.00000000       0.00000000       0.60603176 </v>
    <i name="Tr[quadrupol]">  -1338.87189171 </i>
    <i name="Echarged">      0.00000000 </i>
    <i name="Edipol_quadrupol">      0.00000000 </i>
    <i name="Eion">      0.00000000 </i>
   </dipole>
   <energy>
    <i name="e_fr_energy">    -83.56750489 </i>
    <i name="e_wo_entrp">    -83.52811033 </i>
    <i name="e_0_energy">    -83.54780761 </i>
   </energy>
  </scstep>
  <scstep>
   <time name="dav">   10.82   10.83</time>
   <time name="total">   11.77   11.80</time>
   <dipole>
    <v name="dipole">      0.00000000       0.00000000      -0.36128149 </v>
    <i name="Tr[quadrupol]">  -1340.76267949 </i>
    <i name="Echarged">      0.00000000 </i>
    <i name="Edipol_quadrupol">      0.00000000 </i>
    <i name="Eion">      0.00000000 </i>
   </dipole>
   <energy>
    <i name="e_fr_energy">    -68.16389955 </i>
    <i name="e_wo_entrp">    -68.12137044 </i>
    <i name="e_0_energy">    -68.14263499 </i>
   </energy>
  </scstep>
  <scstep>
   <time name="dav">   10.75   10.76</time>
   <time name="total">   11.70   11.74</time>
   <dipole>
    <v name="dipole">      0.00000000       0.00000000       0.59048071 </v>
    <i name="Tr[quadrupol]">  -1340.50849830 </i>
    <i name="Echarged">      0.00000000 </i>
    <i name="Edipol_quadrupol">      0.00000000 </i>
    <i name="Eion">      0.00000000 </i>
   </dipole>
   <energy>
    <i name="e_fr_energy">    -70.85940913 </i>
    <i name="e_wo_entrp">    -70.81497265 </i>
    <i name="e_0_energy">    -70.83719089 </i>
   </energy>
  </scstep>
  <scstep>
   <time name="dav">   10.55   10.56</time>
   <time name="total">   11.49   11.55</time>
   <dipole>
    <v name="dipole">      0.00000000       0.00000000      -0.16416513 </v>
    <i name="Tr[quadrupol]">  -1341.35137408 </i>
    <i name="Echarged">      0.00000000 </i>
    <i name="Edipol_quadrupol">      0.00000000 </i>
    <i name="Eion">      0.00000000 </i>
   </dipole>
   <energy>
    <i name="e_fr_energy">    -64.19013295 </i>
    <i name="e_wo_entrp">    -64.13711927 </i>
    <i name="e_0_energy">    -64.16362611 </i>
   </energy>
  </scstep>
  <scstep>
   <time name="dav">   10.66   10.67</time>
   <time name="total">   11.61   11.66</time>
   <dipole>
    <v name="dipole">      0.00000000       0.00000000       0.00298669 </v>
    <i name="Tr[quadrupol]">  -1340.84644624 </i>
    <i name="Echarged">      0.00000000 </i>
    <i name="Edipol_quadrupol">      0.00000000 </i>
    <i name="Eion">      0.00000000 </i>
   </dipole>
   <energy>
    <i name="e_fr_energy">    -62.42238124 </i>
    <i name="e_wo_entrp">    -62.37591546 </i>
    <i name="e_0_energy">    -62.39914835 </i>
   </energy>
  </scstep>
  <scstep>
   <time name="dav">   10.21   10.22</time>
   <time name="total">   11.15   11.20</time>
   <dipole>
    <v name="dipole">      0.00000000       0.00000000       0.15552092 </v>
    <i name="Tr[quadrupol]">  -1341.20867356 </i>
    <i name="Echarged">      0.00000000 </i>
    <i name="Edipol_quadrupol">      0.00000000 </i>
    <i name="Eion">      0.00000000 </i>
   </dipole>
   <energy>
    <i name="e_fr_energy">    -62.39633114 </i>
    <i name="e_wo_entrp">    -62.35848152 </i>
    <i name="e_0_energy">    -62.37740633 </i>
   </energy>
  </scstep>
  <scstep>
   <time name="dav">    9.60    9.61</time>
   <time name="total">   10.55   10.60</time>
   <dipole>
    <v name="dipole">      0.00000000       0.00000000       0.16453244 </v>
    <i name="Tr[quadrupol]">  -1341.44080930 </i>
    <i name="Echarged">      0.00000000 </i>
    <i name="Edipol_quadrupol">      0.00000000 </i>
    <i name="Eion">      0.00000000 </i>
   </dipole>
   <energy>
    <i name="e_fr_energy">    -62.38625164 </i>
    <i name="e_wo_entrp">    -62.34189345 </i>
    <i name="e_0_energy">    -62.36407254 </i>
   </energy>
  </scstep>
  <scstep>
   <time name="dav">   10.44   10.45</time>
   <time name="total">   11.39   11.44</time>
   <dipole>
    <v name="dipole">      0.00000000       0.00000000       0.10334714 </v>
    <i name="Tr[quadrupol]">  -1341.61743879 </i>
    <i name="Echarged">      0.00000000 </i>
    <i name="Edipol_quadrupol">      0.00000000 </i>
    <i name="Eion">      0.00000000 </i>
   </dipole>
   <energy>
    <i name="e_fr_energy">    -62.30767199 </i>
    <i name="e_wo_entrp">    -62.25093768 </i>
    <i name="e_0_energy">    -62.27930484 </i>
   </energy>
  </scstep>
  <scstep>
   <time name="dav">    9.57    9.58</time>
   <time name="total">   10.51   10.54</time>
   <dipole>
    <v name="dipole">      0.00000000       0.00000000       0.11706252 </v>
    <i name="Tr[quadrupol]">  -1341.62415661 </i>
    <i name="Echarged">      0.00000000 </i>
    <i name="Edipol_quadrupol">      0.00000000 </i>
    <i name="Eion">      0.00000000 </i>
   </dipole>
   <energy>
    <i name="e_fr_energy">    -62.30994419 </i>
    <i name="e_wo_entrp">    -62.26197161 </i>
    <i name="e_0_energy">    -62.28595790 </i>
   </energy>
  </scstep>
  <scstep>
   <time name="dav">   10.27   10.28</time>
   <time name="total">   11.21   11.28</time>
   <dipole>
    <v name="dipole">      0.00000000       0.00000000       0.12142421 </v>
    <i name="Tr[quadrupol]">  -1341.77101362 </i>
    <i name="Echarged">      0.00000000 </i>
    <i name="Edipol_quadrupol">      0.00000000 </i>
    <i name="Eion">      0.00000000 </i>
   </dipole>
   <energy>
    <i name="e_fr_energy">    -62.30640929 </i>
    <i name="e_wo_entrp">    -62.25667229 </i>
    <i name="e_0_energy">    -62.28154079 </i>
   </energy>
  </scstep>
  <scstep>
   <time name="dav">    9.67    9.68</time>
   <time name="total">   10.62   10.66</time>
   <dipole>
    <v name="dipole">      0.00000000       0.00000000       0.12198325 </v>
    <i name="Tr[quadrupol]">  -1341.89537863 </i>
    <i name="Echarged">      0.00000000 </i>
    <i name="Edipol_quadrupol">      0.00000000 </i>
    <i name="Eion">      0.00000000 </i>
   </dipole>
   <energy>
    <i name="e_fr_energy">    -62.30058054 </i>
    <i name="e_wo_entrp">    -62.24534220 </i>
    <i name="e_0_energy">    -62.27296137 </i>
   </energy>
  </scstep>
  <scstep>
   <time name="dav">   10.76   10.77</time>
   <time name="total">   11.71   11.81</time>
   <dipole>
    <v name="dipole">      0.00000000       0.00000000       0.12264550 </v>
    <i name="Tr[quadrupol]">  -1341.85609556 </i>
    <i name="Echarged">      0.00000000 </i>
    <i name="Edipol_quadrupol">      0.00000000 </i>
    <i name="Eion">      0.00000000 </i>
   </dipole>
   <energy>
    <i name="e_fr_energy">    -62.30081288 </i>
    <i name="e_wo_entrp">    -62.24545133 </i>
    <i name="e_0_energy">    -62.27313210 </i>
   </energy>
  </scstep>
  <scstep>
   <time name="dav">    9.59    9.60</time>
   <time name="total">   10.54   10.56</time>
   <dipole>
    <v name="dipole">      0.00000000       0.00000000       0.12250723 </v>
    <i name="Tr[quadrupol]">  -1341.86437295 </i>
    <i name="Echarged">      0.00000000 </i>
    <i name="Edipol_quadrupol">      0.00000000 </i>
    <i name="Eion">      0.00000000 </i>
   </dipole>
   <energy>
    <i name="e_fr_energy">    -62.30079389 </i>
    <i name="e_wo_entrp">    -62.24536009 </i>
    <i name="e_0_energy">    -62.27307699 </i>
   </energy>
  </scstep>
  <scstep>
   <time name="dav">   10.06   10.07</time>
   <time name="total">   11.01   11.07</time>
   <dipole>
    <v name="dipole">      0.00000000       0.00000000       0.11280537 </v>
    <i name="Tr[quadrupol]">  -1342.27718599 </i>
    <i name="Echarged">      0.00000000 </i>
    <i name="Edipol_quadrupol">      0.00000000 </i>
    <i name="Eion">      0.00000000 </i>
   </dipole>
   <energy>
    <i name="e_fr_energy">    -62.30145738 </i>
    <i name="e_wo_entrp">    -62.24546701 </i>
    <i name="e_0_energy">    -62.27346219 </i>
   </energy>
  </scstep>
  <scstep>
   <time name="dav">   10.67   10.68</time>
   <time name="total">   11.62   11.64</time>
   <dipole>
    <v name="dipole">      0.00000000       0.00000000       0.11484716 </v>
    <i name="Tr[quadrupol]">  -1342.46231985 </i>
    <i name="Echarged">      0.00000000 </i>
    <i name="Edipol_quadrupol">      0.00000000 </i>
    <i name="Eion">      0.00000000 </i>
   </dipole>
   <energy>
    <i name="e_fr_energy">    -62.29941917 </i>
    <i name="e_wo_entrp">    -62.24515409 </i>
    <i name="e_0_energy">    -62.27228663 </i>
   </energy>
  </scstep>
  <scstep>
   <time name="dav">   11.28   11.30</time>
   <time name="total">   12.23   12.32</time>
   <dipole>
    <v name="dipole">      0.00000000       0.00000000       0.12404213 </v>
    <i name="Tr[quadrupol]">  -1342.25589900 </i>
    <i name="Echarged">      0.00000000 </i>
    <i name="Edipol_quadrupol">      0.00000000 </i>
    <i name="Eion">      0.00000000 </i>
   </dipole>
   <energy>
    <i name="e_fr_energy">    -62.29957841 </i>
    <i name="e_wo_entrp">    -62.24591207 </i>
    <i name="e_0_energy">    -62.27274524 </i>
   </energy>
  </scstep>
  <scstep>
   <time name="dav">    9.73    9.74</time>
   <time name="total">   10.68   10.75</time>
   <dipole>
    <v name="dipole">      0.00000000       0.00000000       0.12424786 </v>
    <i name="Tr[quadrupol]">  -1342.14917832 </i>
    <i name="Echarged">      0.00000000 </i>
    <i name="Edipol_quadrupol">      0.00000000 </i>
    <i name="Eion">      0.00000000 </i>
   </dipole>
   <energy>
    <i name="e_fr_energy">    -62.29953091 </i>
    <i name="e_wo_entrp">    -62.24548215 </i>
    <i name="e_0_energy">    -62.27250653 </i>
   </energy>
  </scstep>
  <scstep>
   <time name="dav">    8.12    8.13</time>
   <time name="total">    9.06    9.10</time>
   <dipole>
    <v name="dipole">      0.00000000       0.00000000       0.12157802 </v>
    <i name="Tr[quadrupol]">  -1342.12880760 </i>
    <i name="Echarged">      0.00000000 </i>
    <i name="Edipol_quadrupol">      0.00000000 </i>
    <i name="Eion">      0.00000000 </i>
   </dipole>
   <energy>
    <i name="e_fr_energy">    -62.29991406 </i>
    <i name="e_wo_entrp">    -62.24550663 </i>
    <i name="e_0_energy">    -62.27271034 </i>
   </energy>
  </scstep>
  <scstep>
   <time name="dav">    8.81    8.82</time>
   <time name="total">    9.75    9.81</time>
   <dipole>
    <v name="dipole">      0.00000000       0.00000000       0.12249639 </v>
    <i name="Tr[quadrupol]">  -1342.14490227 </i>
    <i name="Echarged">      0.00000000 </i>
    <i name="Edipol_quadrupol">      0.00000000 </i>
    <i name="Eion">      0.00000000 </i>
   </dipole>
   <energy>
    <i name="e_fr_energy">    -62.29994882 </i>
    <i name="e_wo_entrp">    -62.24586429 </i>
    <i name="e_0_energy">    -62.27290656 </i>
   </energy>
  </scstep>
  <scstep>
   <time name="dav">    9.74    9.76</time>
   <time name="total">   10.70   10.89</time>
   <dipole>
    <v name="dipole">      0.00000000       0.00000000       0.12318308 </v>
    <i name="Tr[quadrupol]">  -1342.14802096 </i>
    <i name="Echarged">      0.00000000 </i>
    <i name="Edipol_quadrupol">      0.00000000 </i>
    <i name="Eion">      0.00000000 </i>
   </dipole>
   <energy>
    <i name="e_fr_energy">    -62.29994345 </i>
    <i name="e_wo_entrp">    -62.24593445 </i>
    <i name="e_0_energy">    -62.27293895 </i>
   </energy>
  </scstep>
  <scstep>
   <time name="dav">    8.09    8.10</time>
   <time name="total">    9.05    9.12</time>
   <dipole>
    <v name="dipole">      0.00000000       0.00000000       0.12387898 </v>
    <i name="Tr[quadrupol]">  -1342.15331068 </i>
    <i name="Echarged">      0.00000000 </i>
    <i name="Edipol_quadrupol">      0.00000000 </i>
    <i name="Eion">      0.00000000 </i>
   </dipole>
   <energy>
    <i name="e_fr_energy">    -62.29996996 </i>
    <i name="e_wo_entrp">    -62.24601420 </i>
    <i name="e_0_energy">    -62.27299208 </i>
   </energy>
  </scstep>
  <scstep>
   <time name="dav">    8.21    8.22</time>
   <time name="total">    9.16    9.19</time>
   <dipole>
    <v name="dipole">      0.00000000       0.00000000       0.12366571 </v>
    <i name="Tr[quadrupol]">  -1342.17100718 </i>
    <i name="Echarged">      0.00000000 </i>
    <i name="Edipol_quadrupol">      0.00000000 </i>
    <i name="Eion">      0.00000000 </i>
   </dipole>
   <energy>
    <i name="e_fr_energy">    -62.30008438 </i>
    <i name="e_wo_entrp">    -62.24613085 </i>
    <i name="e_0_energy">    -62.27310762 </i>
   </energy>
  </scstep>
  <scstep>
   <time name="dav">    6.52    6.52</time>
   <time name="total">    7.47    7.54</time>
   <dipole>
    <v name="dipole">      0.00000000       0.00000000       0.12061045 </v>
    <i name="Tr[quadrupol]">  -1342.40432789 </i>
    <i name="Echarged">      0.00000000 </i>
    <i name="Edipol_quadrupol">      0.00000000 </i>
    <i name="Eion">      0.00000000 </i>
   </dipole>
   <energy>
    <i name="e_fr_energy">    -62.30012202 </i>
    <i name="e_wo_entrp">    -62.24606474 </i>
    <i name="e_0_energy">    -62.27309338 </i>
   </energy>
  </scstep>
  <scstep>
   <time name="dav">    6.73    6.74</time>
   <time name="total">    7.67    7.71</time>
   <dipole>
    <v name="dipole">      0.00000000       0.00000000       0.12389481 </v>
    <i name="Tr[quadrupol]">  -1342.31275504 </i>
    <i name="Echarged">      0.00000000 </i>
    <i name="Edipol_quadrupol">      0.00000000 </i>
    <i name="Eion">      0.00000000 </i>
   </dipole>
   <energy>
    <i name="e_fr_energy">    -62.30021385 </i>
    <i name="e_wo_entrp">    -62.24649074 </i>
    <i name="e_0_energy">    -62.27335230 </i>
   </energy>
  </scstep>
  <scstep>
   <time name="dav">    6.91    6.92</time>
   <time name="total">    7.87    7.93</time>
   <dipole>
    <v name="dipole">      0.00000000       0.00000000       0.12467366 </v>
    <i name="Tr[quadrupol]">  -1342.28755413 </i>
    <i name="Echarged">      0.00000000 </i>
    <i name="Edipol_quadrupol">      0.00000000 </i>
    <i name="Eion">      0.00000000 </i>
   </dipole>
   <energy>
    <i name="e_fr_energy">    -62.30030966 </i>
    <i name="e_wo_entrp">    -62.24663959 </i>
    <i name="e_0_energy">    -62.27347462 </i>
   </energy>
  </scstep>
  <scstep>
   <time name="dav">    6.84    6.84</time>
   <time name="total">    7.78    7.84</time>
   <dipole>
    <v name="dipole">      0.00000000       0.00000000       0.12398070 </v>
    <i name="Tr[quadrupol]">  -1342.27806554 </i>
    <i name="Echarged">      0.00000000 </i>
    <i name="Edipol_quadrupol">      0.00000000 </i>
    <i name="Eion">      0.00000000 </i>
   </dipole>
   <energy>
    <i name="e_fr_energy">    -62.30027718 </i>
    <i name="e_wo_entrp">    -62.24644798 </i>
    <i name="e_0_energy">    -62.27336258 </i>
   </energy>
  </scstep>
  <scstep>
   <time name="dav">    6.59    6.60</time>
   <time name="total">    6.95    7.07</time>
   <dipole>
    <v name="dipole">      0.00000000       0.00000000       0.12308768 </v>
    <i name="Tr[quadrupol]">  -1342.44291826 </i>
    <i name="Echarged">      0.00000000 </i>
    <i name="Edipol_quadrupol">      0.00000000 </i>
    <i name="Eion">      0.00000000 </i>
   </dipole>
   <energy>
    <i name="alphaZ">    831.44098431 </i>
    <i name="ewald"> 282554.54657248 </i>
    <i name="hartreedc">-341177.30477478 </i>
    <i name="XCdc">   1722.83029714 </i>
    <i name="pawpsdc">  57986.57906040 </i>
    <i name="pawaedc"> -60456.16823867 </i>
    <i name="eentropy">     -0.05393485 </i>
    <i name="bandstr">  -7591.62512969 </i>
    <i name="atom">  66067.45489428 </i>
    <i name="e_fr_energy">    -62.30026939 </i>
    <i name="e_wo_entrp">    -62.24633453 </i>
    <i name="e_0_energy">    -62.27330196 </i>
   </energy>
  </scstep>
  <structure>
   <crystal>
    <varray name="basis" >
     <v>       5.01969481       0.00000000       0.00000000 </v>
     <v>       2.50984740       4.34718322       0.00000000 </v>
     <v>       0.00000000       0.00000000      26.20742226 </v>
    </varray>
    <i name="volume">    571.88613037 </i>
    <varray name="rec_basis" >
     <v>       0.19921530      -0.11501701       0.00000000 </v>
     <v>       0.00000000       0.23003401       0.00000000 </v>
     <v>       0.00000000       0.00000000       0.03815713 </v>
    </varray>
   </crystal>
   <varray name="positions" >
    <v>       0.00000000       0.00000000       0.00000000 </v>
    <v>       0.00000000       0.50000000       0.00000000 </v>
    <v>       0.50000000       0.00000000       0.00000000 </v>
    <v>       0.50000000       0.50000000       0.00000000 </v>
    <v>       0.16666667       0.16666667       0.07819471 </v>
    <v>       0.16666667       0.66666669       0.07819471 </v>
    <v>       0.66666669       0.16666667       0.07819471 </v>
    <v>       0.66666669       0.66666669       0.07819471 </v>
    <v>       0.33150195       0.33424904       0.15728548 </v>
    <v>       0.33150195       0.83424907       0.15728548 </v>
    <v>       0.83182595       0.33408705       0.15702669 </v>
    <v>       0.83182595       0.83408708       0.15702669 </v>
    <v>       0.98494900       0.00752550       0.23928406 </v>
    <v>       0.98494900       0.50752550       0.23928406 </v>
    <v>       0.50383311       0.99808344       0.23745072 </v>
    <v>       0.50383311       0.49808344       0.23745072 </v>
    <v>       0.18349913       0.15825044       0.28461970 </v>
   </varray>
  </structure>
  <varray name="forces" >
   <v>       0.03441328       0.02757165      -0.13378708 </v>
   <v>      -0.00667111      -0.04358860      -0.13378708 </v>
   <v>      -0.03327249       0.01920988      -0.13631216 </v>
   <v>       0.00822407      -0.00474817      -0.22141182 </v>
   <v>      -0.00224842       0.00129813       0.15718839 </v>
   <v>       0.02794294      -0.01613286       0.22688136 </v>
   <v>      -0.00923335       0.03120226       0.21326594 </v>
   <v>      -0.03163863      -0.00760481       0.21326594 </v>
   <v>      -0.01139172       0.04122748       0.05466323 </v>
   <v>      -0.04139991      -0.01074822       0.05466323 </v>
   <v>       0.01787409      -0.01031961       0.03798369 </v>
   <v>       0.02881190      -0.01663456       0.16252393 </v>
   <v>       0.56783370      -0.28001360       0.27299839 </v>
   <v>       0.52641574      -0.35175160       0.27299839 </v>
   <v>      -0.19672555       0.11357955       0.16240137 </v>
   <v>      -0.50907407       0.29391405       0.11028129 </v>
   <v>      -0.36986046       0.21353903      -1.31381699 </v>
  </varray>
  <varray name="stress" >
   <v>      -7.59608217      -1.01819041      -0.99359979 </v>
   <v>      -1.01819041      -8.77178718       0.57365511 </v>
   <v>      -0.99359845       0.57365433     -12.50462947 </v>
  </varray>
  <energy>
   <i name="e_fr_energy">    -68.35217420 </i>
   <i name="e_wo_entrp">    -68.32520677 </i>
   <i name="e_0_energy">     -0.05393485 </i>
  </energy>
  <time name="totalsc">  335.37  337.53</time>
 </calculation>
 <calculation>
  <scstep>
   <time name="dav">   10.67   10.69</time>
   <time name="total">   11.62   11.64</time>
   <dipole>
    <v name="dipole">      0.00000000       0.00000000       0.12304715 </v>
    <i name="Tr[quadrupol]">  -1345.62268338 </i>
    <i name="Echarged">      0.00000000 </i>
    <i name="Edipol_quadrupol">      0.00000000 </i>
    <i name="Eion">      0.00000000 </i>
   </dipole>
   <energy>
    <i name="alphaZ">    836.10860062 </i>
    <i name="ewald"> 282316.17318234 </i>
    <i name="hartreedc">-340936.42562143 </i>
    <i name="XCdc">   1723.05837634 </i>
    <i name="pawpsdc">  57986.55219223 </i>
    <i name="pawaedc"> -60456.14732061 </i>
    <i name="eentropy">     -0.05080547 </i>
    <i name="bandstr">  -7597.41084553 </i>
    <i name="atom">  66067.45489428 </i>
    <i name="e_fr_energy">    -60.68734722 </i>
    <i name="e_wo_entrp">    -60.63654175 </i>
    <i name="e_0_energy">    -60.66194448 </i>
   </energy>
  </scstep>
  <scstep>
   <time name="dav">    9.66    9.67</time>
   <time name="total">   10.60   10.67</time>
   <dipole>
    <v name="dipole">      0.00000000       0.00000000       0.10831357 </v>
    <i name="Tr[quadrupol]">  -1345.69557972 </i>
    <i name="Echarged">      0.00000000 </i>
    <i name="Edipol_quadrupol">      0.00000000 </i>
    <i name="Eion">      0.00000000 </i>
   </dipole>
   <energy>
    <i name="e_fr_energy">    -62.39083607 </i>
    <i name="e_wo_entrp">    -62.33632156 </i>
    <i name="e_0_energy">    -62.36357881 </i>
   </energy>
  </scstep>
  <scstep>
   <time name="dav">   10.89   10.90</time>
   <time name="total">   11.83   11.90</time>
   <dipole>
    <v name="dipole">      0.00000000       0.00000000       0.18392024 </v>
    <i name="Tr[quadrupol]">  -1345.82253495 </i>
    <i name="Echarged">      0.00000000 </i>
    <i name="Edipol_quadrupol">      0.00000000 </i>
    <i name="Eion">      0.00000000 </i>
   </dipole>
   <energy>
    <i name="e_fr_energy">    -62.56264920 </i>
    <i name="e_wo_entrp">    -62.52552731 </i>
    <i name="e_0_energy">    -62.54408826 </i>
   </energy>
  </scstep>
  <scstep>
   <time name="dav">   10.83   10.85</time>
   <time name="total">   11.79   11.90</time>
   <dipole>
    <v name="dipole">      0.00000000       0.00000000       0.05997775 </v>
    <i name="Tr[quadrupol]">  -1345.71253366 </i>
    <i name="Echarged">      0.00000000 </i>
    <i name="Edipol_quadrupol">      0.00000000 </i>
    <i name="Eion">      0.00000000 </i>
   </dipole>
   <energy>
    <i name="e_fr_energy">    -62.50862023 </i>
    <i name="e_wo_entrp">    -62.44822624 </i>
    <i name="e_0_energy">    -62.47842323 </i>
   </energy>
  </scstep>
  <scstep>
   <time name="dav">   12.01   12.03</time>
   <time name="total">   12.96   13.15</time>
   <dipole>
    <v name="dipole">      0.00000000       0.00000000       0.11179688 </v>
    <i name="Tr[quadrupol]">  -1345.75442714 </i>
    <i name="Echarged">      0.00000000 </i>
    <i name="Edipol_quadrupol">      0.00000000 </i>
    <i name="Eion">      0.00000000 </i>
   </dipole>
   <energy>
    <i name="e_fr_energy">    -62.39916350 </i>
    <i name="e_wo_entrp">    -62.34757777 </i>
    <i name="e_0_energy">    -62.37337064 </i>
   </energy>
  </scstep>
  <scstep>
   <time name="dav">    9.85    9.86</time>
   <time name="total">   10.79   10.86</time>
   <dipole>
    <v name="dipole">      0.00000000       0.00000000       0.11462860 </v>
    <i name="Tr[quadrupol]">  -1345.80301044 </i>
    <i name="Echarged">      0.00000000 </i>
    <i name="Edipol_quadrupol">      0.00000000 </i>
    <i name="Eion">      0.00000000 </i>
   </dipole>
   <energy>
    <i name="e_fr_energy">    -62.39718409 </i>
    <i name="e_wo_entrp">    -62.34613895 </i>
    <i name="e_0_energy">    -62.37166152 </i>
   </energy>
  </scstep>
  <scstep>
   <time name="dav">    9.74    9.75</time>
   <time name="total">   10.69   10.87</time>
   <dipole>
    <v name="dipole">      0.00000000       0.00000000       0.11546105 </v>
    <i name="Tr[quadrupol]">  -1345.83084182 </i>
    <i name="Echarged">      0.00000000 </i>
    <i name="Edipol_quadrupol">      0.00000000 </i>
    <i name="Eion">      0.00000000 </i>
   </dipole>
   <energy>
    <i name="e_fr_energy">    -62.39687359 </i>
    <i name="e_wo_entrp">    -62.34573053 </i>
    <i name="e_0_energy">    -62.37130206 </i>
   </energy>
  </scstep>
  <scstep>
   <time name="dav">    9.33    9.34</time>
   <time name="total">   10.27   10.29</time>
   <dipole>
    <v name="dipole">      0.00000000       0.00000000       0.11461415 </v>
    <i name="Tr[quadrupol]">  -1345.81596722 </i>
    <i name="Echarged">      0.00000000 </i>
    <i name="Edipol_quadrupol">      0.00000000 </i>
    <i name="Eion">      0.00000000 </i>
   </dipole>
   <energy>
    <i name="e_fr_energy">    -62.39615392 </i>
    <i name="e_wo_entrp">    -62.34465479 </i>
    <i name="e_0_energy">    -62.37040435 </i>
   </energy>
  </scstep>
  <scstep>
   <time name="dav">   11.13   11.14</time>
   <time name="total">   12.07   12.15</time>
   <dipole>
    <v name="dipole">      0.00000000       0.00000000       0.11245931 </v>
    <i name="Tr[quadrupol]">  -1345.78734055 </i>
    <i name="Echarged">      0.00000000 </i>
    <i name="Edipol_quadrupol">      0.00000000 </i>
    <i name="Eion">      0.00000000 </i>
   </dipole>
   <energy>
    <i name="e_fr_energy">    -62.39594367 </i>
    <i name="e_wo_entrp">    -62.34451860 </i>
    <i name="e_0_energy">    -62.37023114 </i>
   </energy>
  </scstep>
  <scstep>
   <time name="dav">    9.76    9.78</time>
   <time name="total">   10.73   10.76</time>
   <dipole>
    <v name="dipole">      0.00000000       0.00000000       0.11374254 </v>
    <i name="Tr[quadrupol]">  -1345.79720558 </i>
    <i name="Echarged">      0.00000000 </i>
    <i name="Edipol_quadrupol">      0.00000000 </i>
    <i name="Eion">      0.00000000 </i>
   </dipole>
   <energy>
    <i name="e_fr_energy">    -62.39580933 </i>
    <i name="e_wo_entrp">    -62.34460972 </i>
    <i name="e_0_energy">    -62.37020952 </i>
   </energy>
  </scstep>
  <scstep>
   <time name="dav">   10.74   10.76</time>
   <time name="total">   11.70   11.77</time>
   <dipole>
    <v name="dipole">      0.00000000       0.00000000       0.11453400 </v>
    <i name="Tr[quadrupol]">  -1345.79585112 </i>
    <i name="Echarged">      0.00000000 </i>
    <i name="Edipol_quadrupol">      0.00000000 </i>
    <i name="Eion">      0.00000000 </i>
   </dipole>
   <energy>
    <i name="e_fr_energy">    -62.39580701 </i>
    <i name="e_wo_entrp">    -62.34496671 </i>
    <i name="e_0_energy">    -62.37038686 </i>
   </energy>
  </scstep>
  <scstep>
   <time name="dav">    9.52    9.53</time>
   <time name="total">   10.46   10.68</time>
   <dipole>
    <v name="dipole">      0.00000000       0.00000000       0.11410702 </v>
    <i name="Tr[quadrupol]">  -1345.81715848 </i>
    <i name="Echarged">      0.00000000 </i>
    <i name="Edipol_quadrupol">      0.00000000 </i>
    <i name="Eion">      0.00000000 </i>
   </dipole>
   <energy>
    <i name="e_fr_energy">    -62.39582575 </i>
    <i name="e_wo_entrp">    -62.34493201 </i>
    <i name="e_0_energy">    -62.37037888 </i>
   </energy>
  </scstep>
  <scstep>
   <time name="dav">    6.94    6.95</time>
   <time name="total">    7.31    7.41</time>
   <dipole>
    <v name="dipole">      0.00000000       0.00000000       0.11328849 </v>
    <i name="Tr[quadrupol]">  -1345.81752680 </i>
    <i name="Echarged">      0.00000000 </i>
    <i name="Edipol_quadrupol">      0.00000000 </i>
    <i name="Eion">      0.00000000 </i>
   </dipole>
   <energy>
    <i name="alphaZ">    840.09132560 </i>
    <i name="ewald"> 282316.17318234 </i>
    <i name="hartreedc">-340941.93655798 </i>
    <i name="XCdc">   1723.01063561 </i>
    <i name="pawpsdc">  58040.52584250 </i>
    <i name="pawaedc"> -60510.45134356 </i>
    <i name="eentropy">     -0.05095210 </i>
    <i name="bandstr">  -7597.21284469 </i>
    <i name="atom">  66067.45489428 </i>
    <i name="e_fr_energy">    -62.39581799 </i>
    <i name="e_wo_entrp">    -62.34486588 </i>
    <i name="e_0_energy">    -62.37034194 </i>
   </energy>
  </scstep>
  <structure>
   <crystal>
    <varray name="basis" >
     <v>       5.01969481       0.00000000       0.00000000 </v>
     <v>       2.50984740       4.34718322       0.00000000 </v>
     <v>       0.00000000       0.00000000      26.20742226 </v>
    </varray>
    <i name="volume">    571.88613037 </i>
    <varray name="rec_basis" >
     <v>       0.19921530      -0.11501701       0.00000000 </v>
     <v>       0.00000000       0.23003401       0.00000000 </v>
     <v>       0.00000000       0.00000000       0.03815713 </v>
    </varray>
   </crystal>
   <varray name="positions" >
    <v>       0.00000000       0.00000000       0.00000000 </v>
    <v>       0.00000000       0.50000000       0.00000000 </v>
    <v>       0.50000000       0.00000000       0.00000000 </v>
    <v>       0.50000000       0.50000000       0.00000000 </v>
    <v>       0.16666667       0.16666667       0.07819471 </v>
    <v>       0.16666667       0.66666669       0.07819471 </v>
    <v>       0.66666669       0.16666667       0.07819471 </v>
    <v>       0.66666669       0.66666669       0.07819471 </v>
    <v>       0.33116371       0.33470656       0.15738611 </v>
    <v>       0.33116371       0.83412979       0.15738611 </v>
    <v>       0.83205500       0.33397253       0.15709661 </v>
    <v>       0.83219515       0.83390248       0.15732586 </v>
    <v>       0.99195999       0.00441806       0.23978660 </v>
    <v>       0.99195999       0.50362195       0.23978660 </v>
    <v>       0.50131223       0.99934389       0.23774967 </v>
    <v>       0.49730972       0.50134514       0.23765373 </v>
    <v>       0.17875965       0.16062018       0.28220122 </v>
   </varray>
  </structure>
  <varray name="forces" >
   <v>       0.04127850       0.02697905      -0.13187889 </v>
   <v>      -0.00272530      -0.04923775      -0.13187889 </v>
   <v>      -0.04053312       0.02340181      -0.13157467 </v>
   <v>       0.00547096      -0.00315866      -0.21792293 </v>
   <v>       0.00198213      -0.00114438       0.16051465 </v>
   <v>       0.02118666      -0.01223213       0.23259667 </v>
   <v>      -0.01011759       0.02600200       0.23079148 </v>
   <v>      -0.02757719      -0.00423891       0.23079148 </v>
   <v>       0.00458366       0.00374734       0.00676730 </v>
   <v>      -0.00095346      -0.00584324       0.00676730 </v>
   <v>      -0.00608178       0.00351132       0.08215396 </v>
   <v>       0.00535162      -0.00308976       0.18081359 </v>
   <v>      -0.16857055      -0.30105239      -0.10377022 </v>
   <v>       0.17643374       0.29651257      -0.10377022 </v>
   <v>       0.41158199      -0.23762697      -0.17354078 </v>
   <v>      -0.15607201       0.09010822       0.07675010 </v>
   <v>      -0.25523827       0.14736189      -0.21360991 </v>
  </varray>
  <varray name="stress" >
   <v>      -5.31722703      -0.72702366      -0.72383323 </v>
   <v>      -0.72702366      -6.15672164       0.41790531 </v>
   <v>      -0.72383104       0.41790405      -9.48407907 </v>
  </varray>
  <energy>
   <i name="e_fr_energy">    -68.44358890 </i>
   <i name="e_wo_entrp">    -68.41811284 </i>
   <i name="e_0_energy">     -0.05095210 </i>
  </energy>
  <time name="totalsc">  150.12  151.52</time>
 </calculation>
 <calculation>
  <scstep>
   <time name="dav">   10.73   10.75</time>
   <time name="total">   11.68   11.70</time>
   <dipole>
    <v name="dipole">      0.00000000       0.00000000       0.11337824 </v>
    <i name="Tr[quadrupol]">  -1345.64177878 </i>
    <i name="Echarged">      0.00000000 </i>
    <i name="Edipol_quadrupol">      0.00000000 </i>
    <i name="Eion">      0.00000000 </i>
   </dipole>
   <energy>
    <i name="alphaZ">    840.09544871 </i>
    <i name="ewald"> 282292.81543935 </i>
    <i name="hartreedc">-340918.35801564 </i>
    <i name="XCdc">   1723.03723450 </i>
    <i name="pawpsdc">  58039.50085182 </i>
    <i name="pawaedc"> -60509.44013095 </i>
    <i name="eentropy">     -0.05065400 </i>
    <i name="bandstr">  -7597.43608723 </i>
    <i name="atom">  66067.45489428 </i>
    <i name="e_fr_energy">    -62.38101914 </i>
    <i name="e_wo_entrp">    -62.33036514 </i>
    <i name="e_0_energy">    -62.35569214 </i>
   </energy>
  </scstep>
  <scstep>
   <time name="dav">    9.34    9.35</time>
   <time name="total">   10.28   10.35</time>
   <dipole>
    <v name="dipole">      0.00000000       0.00000000       0.11273434 </v>
    <i name="Tr[quadrupol]">  -1345.67609488 </i>
    <i name="Echarged">      0.00000000 </i>
    <i name="Edipol_quadrupol">      0.00000000 </i>
    <i name="Eion">      0.00000000 </i>
   </dipole>
   <energy>
    <i name="e_fr_energy">    -62.39681565 </i>
    <i name="e_wo_entrp">    -62.34599813 </i>
    <i name="e_0_energy">    -62.37140689 </i>
   </energy>
  </scstep>
  <scstep>
   <time name="dav">    9.73    9.74</time>
   <time name="total">   10.68   10.91</time>
   <dipole>
    <v name="dipole">      0.00000000       0.00000000       0.11610760 </v>
    <i name="Tr[quadrupol]">  -1345.69711084 </i>
    <i name="Echarged">      0.00000000 </i>
    <i name="Edipol_quadrupol">      0.00000000 </i>
    <i name="Eion">      0.00000000 </i>
   </dipole>
   <energy>
    <i name="e_fr_energy">    -62.39752146 </i>
    <i name="e_wo_entrp">    -62.34773657 </i>
    <i name="e_0_energy">    -62.37262901 </i>
   </energy>
  </scstep>
  <scstep>
   <time name="dav">    9.64    9.65</time>
   <time name="total">   10.59   10.65</time>
   <dipole>
    <v name="dipole">      0.00000000       0.00000000       0.10916580 </v>
    <i name="Tr[quadrupol]">  -1345.67591072 </i>
    <i name="Echarged">      0.00000000 </i>
    <i name="Edipol_quadrupol">      0.00000000 </i>
    <i name="Eion">      0.00000000 </i>
   </dipole>
   <energy>
    <i name="e_fr_energy">    -62.39759193 </i>
    <i name="e_wo_entrp">    -62.34609488 </i>
    <i name="e_0_energy">    -62.37184340 </i>
   </energy>
  </scstep>
  <scstep>
   <time name="dav">   11.38   11.39</time>
   <time name="total">   12.32   12.38</time>
   <dipole>
    <v name="dipole">      0.00000000       0.00000000       0.11282519 </v>
    <i name="Tr[quadrupol]">  -1345.69724796 </i>
    <i name="Echarged">      0.00000000 </i>
    <i name="Edipol_quadrupol">      0.00000000 </i>
    <i name="Eion">      0.00000000 </i>
   </dipole>
   <energy>
    <i name="e_fr_energy">    -62.39708733 </i>
    <i name="e_wo_entrp">    -62.34641050 </i>
    <i name="e_0_energy">    -62.37174891 </i>
   </energy>
  </scstep>
  <scstep>
   <time name="dav">   10.27   10.28</time>
   <time name="total">   11.21   11.29</time>
   <dipole>
    <v name="dipole">      0.00000000       0.00000000       0.11249138 </v>
    <i name="Tr[quadrupol]">  -1345.69781998 </i>
    <i name="Echarged">      0.00000000 </i>
    <i name="Edipol_quadrupol">      0.00000000 </i>
    <i name="Eion">      0.00000000 </i>
   </dipole>
   <energy>
    <i name="e_fr_energy">    -62.39707448 </i>
    <i name="e_wo_entrp">    -62.34644814 </i>
    <i name="e_0_energy">    -62.37176131 </i>
   </energy>
  </scstep>
  <scstep>
   <time name="dav">    8.94    8.95</time>
   <time name="total">    9.29    9.41</time>
   <dipole>
    <v name="dipole">      0.00000000       0.00000000       0.11218027 </v>
    <i name="Tr[quadrupol]">  -1345.70169052 </i>
    <i name="Echarged">      0.00000000 </i>
    <i name="Edipol_quadrupol">      0.00000000 </i>
    <i name="Eion">      0.00000000 </i>
   </dipole>
   <energy>
    <i name="alphaZ">    842.14776415 </i>
    <i name="ewald"> 282292.81543935 </i>
    <i name="hartreedc">-340919.08890118 </i>
    <i name="XCdc">   1723.03175159 </i>
    <i name="pawpsdc">  58047.39141933 </i>
    <i name="pawaedc"> -60517.34894635 </i>
    <i name="eentropy">     -0.05076236 </i>
    <i name="bandstr">  -7598.74974272 </i>
    <i name="atom">  66067.45489428 </i>
    <i name="e_fr_energy">    -62.39708391 </i>
    <i name="e_wo_entrp">    -62.34632155 </i>
    <i name="e_0_energy">    -62.37170273 </i>
   </energy>
  </scstep>
  <structure>
   <crystal>
    <varray name="basis" >
     <v>       5.01969481       0.00000000       0.00000000 </v>
     <v>       2.50984740       4.34718322       0.00000000 </v>
     <v>       0.00000000       0.00000000      26.20742226 </v>
    </varray>
    <i name="volume">    571.88613037 </i>
    <varray name="rec_basis" >
     <v>       0.19921530      -0.11501701       0.00000000 </v>
     <v>       0.00000000       0.23003401       0.00000000 </v>
     <v>       0.00000000       0.00000000       0.03815713 </v>
    </varray>
   </crystal>
   <varray name="positions" >
    <v>       0.00000000       0.00000000       0.00000000 </v>
    <v>       0.00000000       0.50000000       0.00000000 </v>
    <v>       0.50000000       0.00000000       0.00000000 </v>
    <v>       0.50000000       0.50000000       0.00000000 </v>
    <v>       0.16666667       0.16666667       0.07819471 </v>
    <v>       0.16666667       0.66666669       0.07819471 </v>
    <v>       0.66666669       0.16666667       0.07819471 </v>
    <v>       0.66666669       0.66666669       0.07819471 </v>
    <v>       0.33112982       0.33475240       0.15739619 </v>
    <v>       0.33112982       0.83411784       0.15739619 </v>
    <v>       0.83207794       0.33396106       0.15710361 </v>
    <v>       0.83223214       0.83388399       0.15735584 </v>
    <v>       0.99266240       0.00410673       0.23983695 </v>
    <v>       0.99266240       0.50323086       0.23983695 </v>
    <v>       0.50105966       0.99947017       0.23777962 </v>
    <v>       0.49665615       0.50167192       0.23767407 </v>
    <v>       0.17828481       0.16085760       0.28195892 </v>
   </varray>
  </structure>
  <varray name="forces" >
   <v>       0.04228193       0.02655096      -0.13070773 </v>
   <v>      -0.00185284      -0.04989270      -0.13070773 </v>
   <v>      -0.04055151       0.02341242      -0.13004994 </v>
   <v>       0.00567974      -0.00327920      -0.21711692 </v>
   <v>       0.00263323      -0.00152029       0.16279512 </v>
   <v>       0.02090880      -0.01207170       0.23427851 </v>
   <v>      -0.00953790       0.02509134       0.23313166 </v>
   <v>      -0.02649869      -0.00428560       0.23313166 </v>
   <v>       0.00653573       0.00086858       0.00284342 </v>
   <v>       0.00251566      -0.00609440       0.00284342 </v>
   <v>      -0.00793027       0.00457855       0.08394411 </v>
   <v>       0.00416007      -0.00240182       0.18308219 </v>
   <v>      -0.24978861      -0.30983976      -0.14823976 </v>
   <v>       0.14343480       0.37124316      -0.14823976 </v>
   <v>       0.47083445      -0.27183640      -0.20891240 </v>
   <v>      -0.12454265       0.07190473       0.07250607 </v>
   <v>      -0.23828194       0.13757214      -0.09458191 </v>
  </varray>
  <varray name="stress" >
   <v>      -5.52742849      -0.68208423      -0.67988950 </v>
   <v>      -0.68208423      -6.31503151       0.39253439 </v>
   <v>      -0.67988971       0.39253451      -9.85353444 </v>
  </varray>
  <energy>
   <i name="e_fr_energy">    -68.44445005 </i>
   <i name="e_wo_entrp">    -68.41906887 </i>
   <i name="e_0_energy">     -0.05076236 </i>
  </energy>
  <time name="totalsc">   83.36   84.12</time>
 </calculation>
 <calculation>
  <scstep>
   <time name="dav">   11.41   11.42</time>
   <time name="total">   12.36   12.38</time>
   <dipole>
    <v name="dipole">      0.00000000       0.00000000       0.11209771 </v>
    <i name="Tr[quadrupol]">  -1339.85804708 </i>
    <i name="Echarged">      0.00000000 </i>
    <i name="Edipol_quadrupol">      0.00000000 </i>
    <i name="Eion">      0.00000000 </i>
   </dipole>
   <energy>
    <i name="alphaZ">    842.85218293 </i>
    <i name="ewald"> 282400.71953545 </i>
    <i name="hartreedc">-341026.43083713 </i>
    <i name="XCdc">   1723.05397740 </i>
    <i name="pawpsdc">  58047.29516234 </i>
    <i name="pawaedc"> -60517.25416316 </i>
    <i name="eentropy">     -0.05058715 </i>
    <i name="bandstr">  -7599.19888439 </i>
    <i name="atom">  66067.45489428 </i>
    <i name="e_fr_energy">    -61.55871941 </i>
    <i name="e_wo_entrp">    -61.50813226 </i>
    <i name="e_0_energy">    -61.53342584 </i>
   </energy>
  </scstep>
  <scstep>
   <time name="dav">    9.70    9.71</time>
   <time name="total">   10.65   10.71</time>
   <dipole>
    <v name="dipole">      0.00000000       0.00000000       0.11244450 </v>
    <i name="Tr[quadrupol]">  -1339.86197449 </i>
    <i name="Echarged">      0.00000000 </i>
    <i name="Edipol_quadrupol">      0.00000000 </i>
    <i name="Eion">      0.00000000 </i>
   </dipole>
   <energy>
    <i name="e_fr_energy">    -62.40229653 </i>
    <i name="e_wo_entrp">    -62.35194541 </i>
    <i name="e_0_energy">    -62.37712097 </i>
   </energy>
  </scstep>
  <scstep>
   <time name="dav">   11.24   11.25</time>
   <time name="total">   12.18   12.27</time>
   <dipole>
    <v name="dipole">      0.00000000       0.00000000       0.10776985 </v>
    <i name="Tr[quadrupol]">  -1339.89473072 </i>
    <i name="Echarged">      0.00000000 </i>
    <i name="Edipol_quadrupol">      0.00000000 </i>
    <i name="Eion">      0.00000000 </i>
   </dipole>
   <energy>
    <i name="e_fr_energy">    -62.42518637 </i>
    <i name="e_wo_entrp">    -62.37299210 </i>
    <i name="e_0_energy">    -62.39908923 </i>
   </energy>
  </scstep>
  <scstep>
   <time name="dav">    9.94    9.95</time>
   <time name="total">   10.88   11.01</time>
   <dipole>
    <v name="dipole">      0.00000000       0.00000000       0.12061594 </v>
    <i name="Tr[quadrupol]">  -1339.88331547 </i>
    <i name="Echarged">      0.00000000 </i>
    <i name="Edipol_quadrupol">      0.00000000 </i>
    <i name="Eion">      0.00000000 </i>
   </dipole>
   <energy>
    <i name="e_fr_energy">    -62.42662440 </i>
    <i name="e_wo_entrp">    -62.37786689 </i>
    <i name="e_0_energy">    -62.40224565 </i>
   </energy>
  </scstep>
  <scstep>
   <time name="dav">    9.65    9.67</time>
   <time name="total">   10.60   10.77</time>
   <dipole>
    <v name="dipole">      0.00000000       0.00000000       0.11056858 </v>
    <i name="Tr[quadrupol]">  -1339.87065464 </i>
    <i name="Echarged">      0.00000000 </i>
    <i name="Edipol_quadrupol">      0.00000000 </i>
    <i name="Eion">      0.00000000 </i>
   </dipole>
   <energy>
    <i name="e_fr_energy">    -62.42374082 </i>
    <i name="e_wo_entrp">    -62.37260471 </i>
    <i name="e_0_energy">    -62.39817277 </i>
   </energy>
  </scstep>
  <scstep>
   <time name="dav">   10.52   10.53</time>
   <time name="total">   11.47   11.52</time>
   <dipole>
    <v name="dipole">      0.00000000       0.00000000       0.11308744 </v>
    <i name="Tr[quadrupol]">  -1339.86108323 </i>
    <i name="Echarged">      0.00000000 </i>
    <i name="Edipol_quadrupol">      0.00000000 </i>
    <i name="Eion">      0.00000000 </i>
   </dipole>
   <energy>
    <i name="e_fr_energy">    -62.42319502 </i>
    <i name="e_wo_entrp">    -62.37270707 </i>
    <i name="e_0_energy">    -62.39795105 </i>
   </energy>
  </scstep>
  <scstep>
   <time name="dav">   10.58   10.59</time>
   <time name="total">   11.52   11.57</time>
   <dipole>
    <v name="dipole">      0.00000000       0.00000000       0.10767846 </v>
    <i name="Tr[quadrupol]">  -1339.84078003 </i>
    <i name="Echarged">      0.00000000 </i>
    <i name="Edipol_quadrupol">      0.00000000 </i>
    <i name="Eion">      0.00000000 </i>
   </dipole>
   <energy>
    <i name="e_fr_energy">    -62.42259643 </i>
    <i name="e_wo_entrp">    -62.37109006 </i>
    <i name="e_0_energy">    -62.39684325 </i>
   </energy>
  </scstep>
  <scstep>
   <time name="dav">   11.61   11.62</time>
   <time name="total">   12.56   12.63</time>
   <dipole>
    <v name="dipole">      0.00000000       0.00000000       0.11201777 </v>
    <i name="Tr[quadrupol]">  -1339.81332110 </i>
    <i name="Echarged">      0.00000000 </i>
    <i name="Edipol_quadrupol">      0.00000000 </i>
    <i name="Eion">      0.00000000 </i>
   </dipole>
   <energy>
    <i name="e_fr_energy">    -62.42217598 </i>
    <i name="e_wo_entrp">    -62.37165572 </i>
    <i name="e_0_energy">    -62.39691585 </i>
   </energy>
  </scstep>
  <scstep>
   <time name="dav">    9.00    9.01</time>
   <time name="total">    9.94   10.01</time>
   <dipole>
    <v name="dipole">      0.00000000       0.00000000       0.11111437 </v>
    <i name="Tr[quadrupol]">  -1339.87737308 </i>
    <i name="Echarged">      0.00000000 </i>
    <i name="Edipol_quadrupol">      0.00000000 </i>
    <i name="Eion">      0.00000000 </i>
   </dipole>
   <energy>
    <i name="e_fr_energy">    -62.42218620 </i>
    <i name="e_wo_entrp">    -62.37151861 </i>
    <i name="e_0_energy">    -62.39685240 </i>
   </energy>
  </scstep>
  <scstep>
   <time name="dav">    8.88    8.89</time>
   <time name="total">    9.83    9.85</time>
   <dipole>
    <v name="dipole">      0.00000000       0.00000000       0.11078290 </v>
    <i name="Tr[quadrupol]">  -1339.90978888 </i>
    <i name="Echarged">      0.00000000 </i>
    <i name="Edipol_quadrupol">      0.00000000 </i>
    <i name="Eion">      0.00000000 </i>
   </dipole>
   <energy>
    <i name="e_fr_energy">    -62.42218959 </i>
    <i name="e_wo_entrp">    -62.37138689 </i>
    <i name="e_0_energy">    -62.39678824 </i>
   </energy>
  </scstep>
  <scstep>
   <time name="dav">    7.01    7.01</time>
   <time name="total">    7.36    7.43</time>
   <dipole>
    <v name="dipole">      0.00000000       0.00000000       0.11076087 </v>
    <i name="Tr[quadrupol]">  -1339.87637577 </i>
    <i name="Echarged">      0.00000000 </i>
    <i name="Edipol_quadrupol">      0.00000000 </i>
    <i name="Eion">      0.00000000 </i>
   </dipole>
   <energy>
    <i name="alphaZ">    842.72083131 </i>
    <i name="ewald"> 282400.71953545 </i>
    <i name="hartreedc">-341028.24537780 </i>
    <i name="XCdc">   1723.04427313 </i>
    <i name="pawpsdc">  58055.61193443 </i>
    <i name="pawaedc"> -60525.55520670 </i>
    <i name="eentropy">     -0.05077822 </i>
    <i name="bandstr">  -7598.12230309 </i>
    <i name="atom">  66067.45489428 </i>
    <i name="e_fr_energy">    -62.42219721 </i>
    <i name="e_wo_entrp">    -62.37141899 </i>
    <i name="e_0_energy">    -62.39680810 </i>
   </energy>
  </scstep>
  <structure>
   <crystal>
    <varray name="basis" >
     <v>       5.01969481       0.00000000       0.00000000 </v>
     <v>       2.50984740       4.34718322       0.00000000 </v>
     <v>       0.00000000       0.00000000      26.20742226 </v>
    </varray>
    <i name="volume">    571.88613037 </i>
    <varray name="rec_basis" >
     <v>       0.19921530      -0.11501701       0.00000000 </v>
     <v>       0.00000000       0.23003401       0.00000000 </v>
     <v>       0.00000000       0.00000000       0.03815713 </v>
    </varray>
   </crystal>
   <varray name="positions" >
    <v>       0.00000000       0.00000000       0.00000000 </v>
    <v>       0.00000000       0.50000000       0.00000000 </v>
    <v>       0.50000000       0.00000000       0.00000000 </v>
    <v>       0.50000000       0.50000000       0.00000000 </v>
    <v>       0.16666667       0.16666667       0.07819471 </v>
    <v>       0.16666667       0.66666669       0.07819471 </v>
    <v>       0.66666669       0.16666667       0.07819471 </v>
    <v>       0.66666669       0.66666669       0.07819471 </v>
    <v>       0.33110283       0.33487875       0.15742715 </v>
    <v>       0.33110283       0.83401848       0.15742715 </v>
    <v>       0.83203262       0.33398372       0.15727904 </v>
    <v>       0.83238055       0.83380979       0.15777580 </v>
    <v>       0.99375286      -0.00019199       0.23968658 </v>
    <v>       0.99375286       0.50643913       0.23968658 </v>
    <v>       0.50657193       0.99671404       0.23746349 </v>
    <v>       0.49336690       0.50331655       0.23786191 </v>
    <v>       0.17396320       0.16301841       0.28116539 </v>
   </varray>
  </structure>
  <varray name="forces" >
   <v>       0.04382674       0.02507820      -0.13134539 </v>
   <v>       0.00019501      -0.05049417      -0.13134539 </v>
   <v>      -0.04199407       0.02424529      -0.13038511 </v>
   <v>       0.00365230      -0.00210866      -0.21827159 </v>
   <v>      -0.00028438       0.00016419       0.17504588 </v>
   <v>       0.01050704      -0.00606624       0.24762047 </v>
   <v>      -0.00595385       0.01628535       0.25560599 </v>
   <v>      -0.01708045      -0.00298649       0.25560599 </v>
   <v>       0.00743890      -0.01361670      -0.02435604 </v>
   <v>       0.01551186       0.00036608      -0.02435604 </v>
   <v>      -0.01317040       0.00760394       0.07560830 </v>
   <v>       0.00951693      -0.00549460       0.04001861 </v>
   <v>      -0.11833585      -0.06130637      -0.15263168 </v>
   <v>      -0.00607505       0.13313504      -0.15263168 </v>
   <v>       0.05497574      -0.03174026       0.00517070 </v>
   <v>       0.06339202      -0.03659940       0.07728746 </v>
   <v>      -0.00612249       0.00353482      -0.16664047 </v>
  </varray>
  <varray name="stress" >
   <v>      -4.73597121      -0.20872021      -0.02887598 </v>
   <v>      -0.20872021      -4.97698054       0.01667155 </v>
   <v>      -0.02887522       0.01667112      -8.50992956 </v>
  </varray>
  <energy>
   <i name="e_fr_energy">    -68.47077687 </i>
   <i name="e_wo_entrp">    -68.44538776 </i>
   <i name="e_0_energy">     -0.05077822 </i>
  </energy>
  <time name="totalsc">  126.64  127.60</time>
 </calculation>
 <calculation>
  <scstep>
   <time name="dav">   11.68   11.70</time>
   <time name="total">   12.63   12.65</time>
   <dipole>
    <v name="dipole">      0.00000000       0.00000000       0.11085613 </v>
    <i name="Tr[quadrupol]">  -1338.24676950 </i>
    <i name="Echarged">      0.00000000 </i>
    <i name="Edipol_quadrupol">      0.00000000 </i>
    <i name="Eion">      0.00000000 </i>
   </dipole>
   <energy>
    <i name="alphaZ">    844.13954493 </i>
    <i name="ewald"> 282432.36355049 </i>
    <i name="hartreedc">-341059.90220335 </i>
    <i name="XCdc">   1723.05433662 </i>
    <i name="pawpsdc">  58049.93498219 </i>
    <i name="pawaedc"> -60519.89673296 </i>
    <i name="eentropy">     -0.05084115 </i>
    <i name="bandstr">  -7599.45365690 </i>
    <i name="atom">  66067.45489428 </i>
    <i name="e_fr_energy">    -62.35612583 </i>
    <i name="e_wo_entrp">    -62.30528468 </i>
    <i name="e_0_energy">    -62.33070525 </i>
   </energy>
  </scstep>
  <scstep>
   <time name="dav">    9.47    9.48</time>
   <time name="total">   10.42   10.49</time>
   <dipole>
    <v name="dipole">      0.00000000       0.00000000       0.11113740 </v>
    <i name="Tr[quadrupol]">  -1338.26756030 </i>
    <i name="Echarged">      0.00000000 </i>
    <i name="Edipol_quadrupol">      0.00000000 </i>
    <i name="Eion">      0.00000000 </i>
   </dipole>
   <energy>
    <i name="e_fr_energy">    -62.42201295 </i>
    <i name="e_wo_entrp">    -62.37154245 </i>
    <i name="e_0_energy">    -62.39677770 </i>
   </energy>
  </scstep>
  <scstep>
   <time name="dav">   10.63   10.64</time>
   <time name="total">   11.58   11.61</time>
   <dipole>
    <v name="dipole">      0.00000000       0.00000000       0.10637695 </v>
    <i name="Tr[quadrupol]">  -1338.26316918 </i>
    <i name="Echarged">      0.00000000 </i>
    <i name="Edipol_quadrupol">      0.00000000 </i>
    <i name="Eion">      0.00000000 </i>
   </dipole>
   <energy>
    <i name="e_fr_energy">    -62.42432240 </i>
    <i name="e_wo_entrp">    -62.37226651 </i>
    <i name="e_0_energy">    -62.39829446 </i>
   </energy>
  </scstep>
  <scstep>
   <time name="dav">   10.31   10.32</time>
   <time name="total">   11.26   11.35</time>
   <dipole>
    <v name="dipole">      0.00000000       0.00000000       0.11514460 </v>
    <i name="Tr[quadrupol]">  -1338.22600391 </i>
    <i name="Echarged">      0.00000000 </i>
    <i name="Edipol_quadrupol">      0.00000000 </i>
    <i name="Eion">      0.00000000 </i>
   </dipole>
   <energy>
    <i name="e_fr_energy">    -62.42438313 </i>
    <i name="e_wo_entrp">    -62.37460197 </i>
    <i name="e_0_energy">    -62.39949255 </i>
   </energy>
  </scstep>
  <scstep>
   <time name="dav">    9.79    9.80</time>
   <time name="total">   10.73   10.81</time>
   <dipole>
    <v name="dipole">      0.00000000       0.00000000       0.10981352 </v>
    <i name="Tr[quadrupol]">  -1338.23242249 </i>
    <i name="Echarged">      0.00000000 </i>
    <i name="Edipol_quadrupol">      0.00000000 </i>
    <i name="Eion">      0.00000000 </i>
   </dipole>
   <energy>
    <i name="e_fr_energy">    -62.42357034 </i>
    <i name="e_wo_entrp">    -62.37265521 </i>
    <i name="e_0_energy">    -62.39811278 </i>
   </energy>
  </scstep>
  <scstep>
   <time name="dav">   10.04   10.06</time>
   <time name="total">   10.99   11.17</time>
   <dipole>
    <v name="dipole">      0.00000000       0.00000000       0.11019783 </v>
    <i name="Tr[quadrupol]">  -1338.25084370 </i>
    <i name="Echarged">      0.00000000 </i>
    <i name="Edipol_quadrupol">      0.00000000 </i>
    <i name="Eion">      0.00000000 </i>
   </dipole>
   <energy>
    <i name="e_fr_energy">    -62.42353277 </i>
    <i name="e_wo_entrp">    -62.37259435 </i>
    <i name="e_0_energy">    -62.39806356 </i>
   </energy>
  </scstep>
  <scstep>
   <time name="dav">    9.41    9.42</time>
   <time name="total">   10.36   10.46</time>
   <dipole>
    <v name="dipole">      0.00000000       0.00000000       0.11062760 </v>
    <i name="Tr[quadrupol]">  -1338.26671658 </i>
    <i name="Echarged">      0.00000000 </i>
    <i name="Edipol_quadrupol">      0.00000000 </i>
    <i name="Eion">      0.00000000 </i>
   </dipole>
   <energy>
    <i name="e_fr_energy">    -62.42351303 </i>
    <i name="e_wo_entrp">    -62.37277736 </i>
    <i name="e_0_energy">    -62.39814519 </i>
   </energy>
  </scstep>
  <scstep>
   <time name="dav">    9.76    9.77</time>
   <time name="total">   10.12   10.19</time>
   <dipole>
    <v name="dipole">      0.00000000       0.00000000       0.11055900 </v>
    <i name="Tr[quadrupol]">  -1338.25383644 </i>
    <i name="Echarged">      0.00000000 </i>
    <i name="Edipol_quadrupol">      0.00000000 </i>
    <i name="Eion">      0.00000000 </i>
   </dipole>
   <energy>
    <i name="alphaZ">    844.10657249 </i>
    <i name="ewald"> 282432.36355049 </i>
    <i name="hartreedc">-341060.63101759 </i>
    <i name="XCdc">   1723.05459599 </i>
    <i name="pawpsdc">  58049.12883614 </i>
    <i name="pawaedc"> -60519.10283918 </i>
    <i name="eentropy">     -0.05081458 </i>
    <i name="bandstr">  -7598.74729707 </i>
    <i name="atom">  66067.45489428 </i>
    <i name="e_fr_energy">    -62.42351903 </i>
    <i name="e_wo_entrp">    -62.37270445 </i>
    <i name="e_0_energy">    -62.39811174 </i>
   </energy>
  </scstep>
  <structure>
   <crystal>
    <varray name="basis" >
     <v>       5.01969481       0.00000000       0.00000000 </v>
     <v>       2.50984740       4.34718322       0.00000000 </v>
     <v>       0.00000000       0.00000000      26.20742226 </v>
    </varray>
    <i name="volume">    571.88613037 </i>
    <varray name="rec_basis" >
     <v>       0.19921530      -0.11501701       0.00000000 </v>
     <v>       0.00000000       0.23003401       0.00000000 </v>
     <v>       0.00000000       0.00000000       0.03815713 </v>
    </varray>
   </crystal>
   <varray name="positions" >
    <v>       0.00000000       0.00000000       0.00000000 </v>
    <v>       0.00000000       0.50000000       0.00000000 </v>
    <v>       0.50000000       0.00000000       0.00000000 </v>
    <v>       0.50000000       0.50000000       0.00000000 </v>
    <v>       0.16666667       0.16666667       0.07819471 </v>
    <v>       0.16666667       0.66666669       0.07819471 </v>
    <v>       0.66666669       0.16666667       0.07819471 </v>
    <v>       0.66666669       0.66666669       0.07819471 </v>
    <v>       0.33109510       0.33491493       0.15743602 </v>
    <v>       0.33109510       0.83399002       0.15743602 </v>
    <v>       0.83201964       0.33399021       0.15732927 </v>
    <v>       0.83242304       0.83378854       0.15789606 </v>
    <v>       0.99406512      -0.00142293       0.23964353 </v>
    <v>       0.99406512       0.50735781       0.23964353 </v>
    <v>       0.50815037       0.99592481       0.23737296 </v>
    <v>       0.49242502       0.50378749       0.23791570 </v>
    <v>       0.17272570       0.16363716       0.28093817 </v>
   </varray>
  </structure>
  <varray name="forces" >
   <v>       0.04434949       0.02453954      -0.13202644 </v>
   <v>       0.00092288      -0.05067755      -0.13202644 </v>
   <v>      -0.04218761       0.02435703      -0.13099382 </v>
   <v>       0.00321594      -0.00185672      -0.21912743 </v>
   <v>      -0.00065600       0.00037874       0.17833491 </v>
   <v>       0.00838681      -0.00484213       0.25140430 </v>
   <v>      -0.00508825       0.01427774       0.26174509 </v>
   <v>      -0.01490901      -0.00273232       0.26174509 </v>
   <v>       0.00787819      -0.01707111      -0.03170345 </v>
   <v>       0.01872312       0.00171284      -0.03170345 </v>
   <v>      -0.01468601       0.00847897       0.07842480 </v>
   <v>       0.01116875      -0.00644828       0.00218636 </v>
   <v>      -0.07879883       0.00298088      -0.15376734 </v>
   <v>      -0.04198093       0.06675135      -0.15376734 </v>
   <v>      -0.05840989       0.03372297       0.05751827 </v>
   <v>       0.10877299      -0.06280012       0.07865805 </v>
   <v>       0.05329836      -0.03077182      -0.18490115 </v>
  </varray>
  <varray name="stress" >
   <v>      -5.85935223      -0.08420910       0.18428861 </v>
   <v>      -0.08420910      -5.95658853      -0.10639908 </v>
   <v>       0.18428870      -0.10639913      -9.44689856 </v>
  </varray>
  <energy>
   <i name="e_fr_energy">    -68.47247912 </i>
   <i name="e_wo_entrp">    -68.44707182 </i>
   <i name="e_0_energy">     -0.05081458 </i>
  </energy>
  <time name="totalsc">   95.37   96.18</time>
 </calculation>
 <calculation>
  <scstep>
   <time name="dav">   11.26   11.28</time>
   <time name="total">   12.21   12.23</time>
   <dipole>
    <v name="dipole">      0.00000000       0.00000000       0.11006073 </v>
    <i name="Tr[quadrupol]">  -1338.50080469 </i>
    <i name="Echarged">      0.00000000 </i>
    <i name="Edipol_quadrupol">      0.00000000 </i>
    <i name="Eion">      0.00000000 </i>
   </dipole>
   <energy>
    <i name="alphaZ">    841.95814277 </i>
[...]
        <r>  0.0081  0.0063  0.0199 </r>
        <r>  0.0010  0.0235  0.0114 </r>
        <r>  0.0063  0.0073  0.0302 </r>
        <r>  0.0027  0.0031  0.0104 </r>
        <r>  0.0004  0.0119  0.0225 </r>
        <r>  0.0024  0.0073  0.0168 </r>
        <r>  0.0114  0.0035  0.0052 </r>
        <r>  0.0004  0.0514  0.0000 </r>
       </set>
       <set comment="band 146">
        <r>  0.0021  0.0121  0.0087 </r>
        <r>  0.0013  0.0086  0.0118 </r>
        <r>  0.0005  0.0119  0.0098 </r>
        <r>  0.0003  0.0085  0.0089 </r>
        <r>  0.0005  0.0190  0.0049 </r>
        <r>  0.0024  0.0043  0.0144 </r>
        <r>  0.0013  0.0037  0.0022 </r>
        <r>  0.0017  0.0005  0.0102 </r>
        <r>  0.0037  0.0157  0.0092 </r>
        <r>  0.0069  0.0101  0.0145 </r>
        <r>  0.0010  0.0120  0.0095 </r>
        <r>  0.0015  0.0048  0.0144 </r>
        <r>  0.0001  0.0142  0.0153 </r>
        <r>  0.0003  0.0136  0.0239 </r>
        <r>  0.0031  0.0171  0.0197 </r>
        <r>  0.0212  0.0165  0.0150 </r>
        <r>  0.0035  0.0744  0.0000 </r>
       </set>
       <set comment="band 147">
        <r>  0.0020  0.0145  0.0127 </r>
        <r>  0.0010  0.0217  0.0091 </r>
        <r>  0.0014  0.0076  0.0092 </r>
        <r>  0.0007  0.0034  0.0167 </r>
        <r>  0.0006  0.0101  0.0151 </r>
        <r>  0.0047  0.0168  0.0101 </r>
        <r>  0.0020  0.0054  0.0157 </r>
        <r>  0.0035  0.0084  0.0078 </r>
        <r>  0.0048  0.0071  0.0141 </r>
        <r>  0.0044  0.0078  0.0146 </r>
        <r>  0.0067  0.0103  0.0089 </r>
        <r>  0.0081  0.0067  0.0117 </r>
        <r>  0.0006  0.0096  0.0312 </r>
        <r>  0.0124  0.0171  0.0110 </r>
        <r>  0.0012  0.0067  0.0176 </r>
        <r>  0.0136  0.0235  0.0083 </r>
        <r>  0.0034  0.0400  0.0000 </r>
       </set>
       <set comment="band 148">
        <r>  0.0035  0.0179  0.0114 </r>
        <r>  0.0025  0.0125  0.0198 </r>
        <r>  0.0040  0.0122  0.0196 </r>
        <r>  0.0043  0.0206  0.0109 </r>
        <r>  0.0034  0.0228  0.0169 </r>
        <r>  0.0049  0.0179  0.0170 </r>
        <r>  0.0026  0.0166  0.0201 </r>
        <r>  0.0014  0.0242  0.0192 </r>
        <r>  0.0017  0.0036  0.0129 </r>
        <r>  0.0003  0.0178  0.0046 </r>
        <r>  0.0011  0.0142  0.0053 </r>
        <r>  0.0020  0.0043  0.0120 </r>
        <r>  0.0004  0.0038  0.0137 </r>
        <r>  0.0053  0.0087  0.0118 </r>
        <r>  0.0016  0.0068  0.0100 </r>
        <r>  0.0073  0.0092  0.0063 </r>
        <r>  0.0026  0.0257  0.0000 </r>
       </set>
       <set comment="band 149">
        <r>  0.0012  0.0038  0.0117 </r>
        <r>  0.0056  0.0010  0.0070 </r>
        <r>  0.0015  0.0141  0.0073 </r>
        <r>  0.0035  0.0110  0.0082 </r>
        <r>  0.0080  0.0042  0.0159 </r>
        <r>  0.0011  0.0143  0.0113 </r>
        <r>  0.0058  0.0082  0.0170 </r>
        <r>  0.0038  0.0203  0.0078 </r>
        <r>  0.0039  0.0186  0.0099 </r>
        <r>  0.0054  0.0134  0.0178 </r>
        <r>  0.0070  0.0118  0.0135 </r>
        <r>  0.0031  0.0132  0.0200 </r>
        <r>  0.0083  0.0037  0.0200 </r>
        <r>  0.0000  0.0156  0.0149 </r>
        <r>  0.0041  0.0089  0.0118 </r>
        <r>  0.0054  0.0248  0.0059 </r>
        <r>  0.0045  0.0295  0.0000 </r>
       </set>
       <set comment="band 150">
        <r>  0.0020  0.0087  0.0074 </r>
        <r>  0.0015  0.0088  0.0059 </r>
        <r>  0.0030  0.0104  0.0061 </r>
        <r>  0.0031  0.0075  0.0059 </r>
        <r>  0.0062  0.0035  0.0131 </r>
        <r>  0.0131  0.0084  0.0046 </r>
        <r>  0.0073  0.0094  0.0093 </r>
        <r>  0.0035  0.0045  0.0113 </r>
        <r>  0.0171  0.0066  0.0176 </r>
        <r>  0.0049  0.0137  0.0250 </r>
        <r>  0.0100  0.0173  0.0213 </r>
        <r>  0.0230  0.0131  0.0169 </r>
        <r>  0.0008  0.0182  0.0200 </r>
        <r>  0.0082  0.0056  0.0121 </r>
        <r>  0.0102  0.0036  0.0272 </r>
        <r>  0.0046  0.0233  0.0079 </r>
        <r>  0.0056  0.0326  0.0000 </r>
       </set>
       <set comment="band 151">
        <r>  0.0094  0.0153  0.0055 </r>
        <r>  0.0118  0.0098  0.0119 </r>
        <r>  0.0057  0.0092  0.0074 </r>
        <r>  0.0043  0.0055  0.0149 </r>
        <r>  0.0066  0.0114  0.0079 </r>
        <r>  0.0015  0.0102  0.0206 </r>
        <r>  0.0072  0.0135  0.0082 </r>
        <r>  0.0056  0.0091  0.0199 </r>
        <r>  0.0037  0.0035  0.0121 </r>
        <r>  0.0037  0.0106  0.0041 </r>
        <r>  0.0021  0.0057  0.0126 </r>
        <r>  0.0008  0.0116  0.0077 </r>
        <r>  0.0021  0.0153  0.0143 </r>
        <r>  0.0005  0.0173  0.0141 </r>
        <r>  0.0019  0.0079  0.0102 </r>
        <r>  0.0001  0.0205  0.0110 </r>
        <r>  0.0004  0.0238  0.0000 </r>
       </set>
       <set comment="band 152">
        <r>  0.0029  0.0016  0.0058 </r>
        <r>  0.0029  0.0012  0.0060 </r>
        <r>  0.0067  0.0024  0.0044 </r>
        <r>  0.0071  0.0013  0.0060 </r>
        <r>  0.0031  0.0028  0.0051 </r>
        <r>  0.0025  0.0021  0.0057 </r>
        <r>  0.0053  0.0014  0.0045 </r>
        <r>  0.0059  0.0018  0.0045 </r>
        <r>  0.0014  0.0047  0.0045 </r>
        <r>  0.0018  0.0032  0.0043 </r>
        <r>  0.0035  0.0007  0.0044 </r>
        <r>  0.0031  0.0023  0.0020 </r>
        <r>  0.0021  0.0033  0.0039 </r>
        <r>  0.0038  0.0051  0.0029 </r>
        <r>  0.0003  0.0041  0.0024 </r>
        <r>  0.0001  0.0030  0.0042 </r>
        <r>  0.0002  0.0108  0.0000 </r>
       </set>
       <set comment="band 153">
        <r>  0.0083  0.0066  0.0128 </r>
        <r>  0.0052  0.0142  0.0099 </r>
        <r>  0.0065  0.0097  0.0129 </r>
        <r>  0.0072  0.0145  0.0085 </r>
        <r>  0.0028  0.0110  0.0055 </r>
        <r>  0.0040  0.0022  0.0091 </r>
        <r>  0.0020  0.0055  0.0067 </r>
        <r>  0.0088  0.0013  0.0024 </r>
        <r>  0.0041  0.0151  0.0056 </r>
        <r>  0.0057  0.0042  0.0118 </r>
        <r>  0.0014  0.0058  0.0053 </r>
        <r>  0.0048  0.0093  0.0053 </r>
        <r>  0.0050  0.0097  0.0059 </r>
        <r>  0.0012  0.0070  0.0100 </r>
        <r>  0.0020  0.0037  0.0159 </r>
        <r>  0.0012  0.0155  0.0102 </r>
        <r>  0.0105  0.0057  0.0000 </r>
       </set>
       <set comment="band 154">
        <r>  0.0058  0.0019  0.0066 </r>
        <r>  0.0062  0.0111  0.0033 </r>
        <r>  0.0078  0.0031  0.0050 </r>
        <r>  0.0079  0.0040  0.0026 </r>
        <r>  0.0010  0.0149  0.0089 </r>
        <r>  0.0002  0.0074  0.0107 </r>
        <r>  0.0030  0.0152  0.0072 </r>
        <r>  0.0029  0.0090  0.0093 </r>
        <r>  0.0006  0.0090  0.0150 </r>
        <r>  0.0006  0.0169  0.0080 </r>
        <r>  0.0047  0.0059  0.0100 </r>
        <r>  0.0108  0.0168  0.0038 </r>
        <r>  0.0030  0.0019  0.0080 </r>
        <r>  0.0067  0.0096  0.0067 </r>
        <r>  0.0013  0.0039  0.0178 </r>
        <r>  0.0009  0.0192  0.0060 </r>
        <r>  0.0025  0.0147  0.0000 </r>
       </set>
       <set comment="band 155">
        <r>  0.0000  0.0098  0.0071 </r>
        <r>  0.0002  0.0087  0.0078 </r>
        <r>  0.0001  0.0121  0.0068 </r>
        <r>  0.0008  0.0081  0.0086 </r>
        <r>  0.0070  0.0097  0.0120 </r>
        <r>  0.0086  0.0165  0.0079 </r>
        <r>  0.0097  0.0131  0.0102 </r>
        <r>  0.0039  0.0122  0.0112 </r>
        <r>  0.0041  0.0072  0.0130 </r>
        <r>  0.0064  0.0122  0.0077 </r>
        <r>  0.0092  0.0089  0.0124 </r>
        <r>  0.0055  0.0130  0.0079 </r>
        <r>  0.0009  0.0028  0.0094 </r>
        <r>  0.0056  0.0051  0.0038 </r>
        <r>  0.0027  0.0023  0.0052 </r>
        <r>  0.0010  0.0098  0.0048 </r>
        <r>  0.0016  0.0152  0.0000 </r>
       </set>
       <set comment="band 156">
        <r>  0.0086  0.0068  0.0056 </r>
        <r>  0.0054  0.0026  0.0044 </r>
        <r>  0.0024  0.0008  0.0088 </r>
        <r>  0.0010  0.0084  0.0046 </r>
        <r>  0.0077  0.0050  0.0052 </r>
        <r>  0.0008  0.0016  0.0021 </r>
        <r>  0.0020  0.0011  0.0078 </r>
        <r>  0.0023  0.0065  0.0013 </r>
        <r>  0.0063  0.0042  0.0021 </r>
        <r>  0.0039  0.0014  0.0024 </r>
        <r>  0.0046  0.0024  0.0042 </r>
        <r>  0.0026  0.0030  0.0023 </r>
        <r>  0.0005  0.0039  0.0019 </r>
        <r>  0.0012  0.0020  0.0041 </r>
        <r>  0.0006  0.0051  0.0025 </r>
        <r>  0.0004  0.0036  0.0031 </r>
        <r>  0.0002  0.0043  0.0000 </r>
       </set>
       <set comment="band 157">
        <r>  0.0033  0.0014  0.0011 </r>
        <r>  0.0011  0.0023  0.0047 </r>
        <r>  0.0011  0.0052  0.0033 </r>
        <r>  0.0074  0.0020  0.0049 </r>
        <r>  0.0004  0.0017  0.0011 </r>
        <r>  0.0015  0.0062  0.0029 </r>
        <r>  0.0004  0.0042  0.0010 </r>
        <r>  0.0033  0.0005  0.0065 </r>
        <r>  0.0006  0.0027  0.0020 </r>
        <r>  0.0016  0.0033  0.0016 </r>
        <r>  0.0024  0.0024  0.0016 </r>
        <r>  0.0002  0.0028  0.0032 </r>
        <r>  0.0002  0.0022  0.0021 </r>
        <r>  0.0005  0.0037  0.0018 </r>
        <r>  0.0020  0.0016  0.0019 </r>
        <r>  0.0020  0.0029  0.0009 </r>
        <r>  0.0013  0.0065  0.0000 </r>
       </set>
       <set comment="band 158">
        <r>  0.0058  0.0098  0.0044 </r>
        <r>  0.0092  0.0072  0.0047 </r>
        <r>  0.0069  0.0075  0.0061 </r>
        <r>  0.0045  0.0075  0.0068 </r>
        <r>  0.0049  0.0042  0.0055 </r>
        <r>  0.0046  0.0020  0.0047 </r>
        <r>  0.0010  0.0081  0.0073 </r>
        <r>  0.0004  0.0137  0.0056 </r>
        <r>  0.0045  0.0073  0.0043 </r>
        <r>  0.0051  0.0029  0.0068 </r>
        <r>  0.0008  0.0023  0.0065 </r>
        <r>  0.0003  0.0047  0.0050 </r>
        <r>  0.0070  0.0039  0.0040 </r>
        <r>  0.0061  0.0030  0.0021 </r>
        <r>  0.0020  0.0024  0.0049 </r>
        <r>  0.0001  0.0082  0.0052 </r>
        <r>  0.0032  0.0032  0.0000 </r>
       </set>
       <set comment="band 159">
        <r>  0.0061  0.0056  0.0071 </r>
        <r>  0.0064  0.0064  0.0054 </r>
        <r>  0.0083  0.0060  0.0027 </r>
        <r>  0.0075  0.0089  0.0050 </r>
        <r>  0.0032  0.0121  0.0017 </r>
        <r>  0.0027  0.0060  0.0113 </r>
        <r>  0.0024  0.0048  0.0052 </r>
        <r>  0.0036  0.0058  0.0061 </r>
        <r>  0.0020  0.0095  0.0061 </r>
        <r>  0.0008  0.0029  0.0084 </r>
        <r>  0.0007  0.0080  0.0065 </r>
        <r>  0.0013  0.0117  0.0065 </r>
        <r>  0.0041  0.0086  0.0062 </r>
        <r>  0.0006  0.0043  0.0068 </r>
        <r>  0.0052  0.0036  0.0081 </r>
        <r>  0.0007  0.0160  0.0056 </r>
        <r>  0.0026  0.0068  0.0000 </r>
       </set>
       <set comment="band 160">
        <r>  0.0016  0.0090  0.0041 </r>
        <r>  0.0003  0.0041  0.0050 </r>
        <r>  0.0020  0.0067  0.0060 </r>
        <r>  0.0018  0.0078  0.0041 </r>
        <r>  0.0011  0.0046  0.0069 </r>
        <r>  0.0001  0.0102  0.0027 </r>
        <r>  0.0004  0.0063  0.0114 </r>
        <r>  0.0008  0.0124  0.0045 </r>
        <r>  0.0007  0.0089  0.0031 </r>
        <r>  0.0038  0.0047  0.0041 </r>
        <r>  0.0003  0.0121  0.0060 </r>
        <r>  0.0013  0.0062  0.0091 </r>
        <r>  0.0022  0.0055  0.0069 </r>
        <r>  0.0017  0.0041  0.0050 </r>
        <r>  0.0051  0.0052  0.0088 </r>
        <r>  0.0018  0.0046  0.0042 </r>
        <r>  0.0030  0.0080  0.0000 </r>
       </set>
       <set comment="band 161">
        <r>  0.0005  0.0032  0.0086 </r>
        <r>  0.0000  0.0097  0.0043 </r>
        <r>  0.0054  0.0046  0.0032 </r>
        <r>  0.0003  0.0047  0.0017 </r>
        <r>  0.0002  0.0061  0.0159 </r>
        <r>  0.0017  0.0154  0.0051 </r>
        <r>  0.0092  0.0067  0.0045 </r>
        <r>  0.0012  0.0069  0.0042 </r>
        <r>  0.0034  0.0076  0.0123 </r>
        <r>  0.0025  0.0125  0.0064 </r>
        <r>  0.0095  0.0075  0.0079 </r>
        <r>  0.0048  0.0055  0.0024 </r>
        <r>  0.0035  0.0076  0.0026 </r>
        <r>  0.0052  0.0032  0.0065 </r>
        <r>  0.0006  0.0110  0.0023 </r>
        <r>  0.0008  0.0009  0.0102 </r>
        <r>  0.0002  0.0132  0.0000 </r>
       </set>
       <set comment="band 162">
        <r>  0.0013  0.0051  0.0016 </r>
        <r>  0.0052  0.0009  0.0020 </r>
        <r>  0.0013  0.0067  0.0035 </r>
        <r>  0.0013  0.0031  0.0059 </r>
        <r>  0.0037  0.0025  0.0040 </r>
        <r>  0.0066  0.0009  0.0030 </r>
        <r>  0.0001  0.0071  0.0055 </r>
        <r>  0.0054  0.0071  0.0056 </r>
        <r>  0.0076  0.0026  0.0027 </r>
        <r>  0.0028  0.0045  0.0044 </r>
        <r>  0.0016  0.0041  0.0063 </r>
        <r>  0.0027  0.0060  0.0036 </r>
        <r>  0.0005  0.0043  0.0023 </r>
        <r>  0.0012  0.0027  0.0041 </r>
        <r>  0.0010  0.0070  0.0030 </r>
        <r>  0.0001  0.0043  0.0033 </r>
        <r>  0.0030  0.0004  0.0000 </r>
       </set>
       <set comment="band 163">
        <r>  0.0032  0.0067  0.0058 </r>
        <r>  0.0024  0.0057  0.0058 </r>
        <r>  0.0049  0.0080  0.0054 </r>
        <r>  0.0055  0.0078  0.0045 </r>
        <r>  0.0003  0.0017  0.0066 </r>
        <r>  0.0135  0.0034  0.0037 </r>
        <r>  0.0003  0.0032  0.0060 </r>
        <r>  0.0180  0.0036  0.0021 </r>
        <r>  0.0083  0.0033  0.0082 </r>
        <r>  0.0019  0.0083  0.0030 </r>
        <r>  0.0201  0.0021  0.0037 </r>
        <r>  0.0015  0.0045  0.0023 </r>
        <r>  0.0092  0.0027  0.0041 </r>
        <r>  0.0108  0.0013  0.0029 </r>
        <r>  0.0034  0.0045  0.0059 </r>
        <r>  0.0052  0.0022  0.0051 </r>
        <r>  0.0016  0.0084  0.0000 </r>
       </set>
       <set comment="band 164">
        <r>  0.0000  0.0092  0.0015 </r>
        <r>  0.0005  0.0025  0.0056 </r>
        <r>  0.0031  0.0029  0.0020 </r>
        <r>  0.0048  0.0022  0.0011 </r>
        <r>  0.0037  0.0047  0.0043 </r>
        <r>  0.0000  0.0005  0.0044 </r>
        <r>  0.0012  0.0020  0.0030 </r>
        <r>  0.0081  0.0027  0.0043 </r>
        <r>  0.0056  0.0005  0.0035 </r>
        <r>  0.0024  0.0023  0.0021 </r>
        <r>  0.0000  0.0025  0.0073 </r>
        <r>  0.0013  0.0096  0.0010 </r>
        <r>  0.0003  0.0021  0.0030 </r>
        <r>  0.0006  0.0048  0.0033 </r>
        <r>  0.0010  0.0062  0.0004 </r>
        <r>  0.0004  0.0032  0.0020 </r>
        <r>  0.0014  0.0024  0.0000 </r>
       </set>
       <set comment="band 165">
        <r>  0.0166  0.0157  0.0121 </r>
        <r>  0.0159  0.0212  0.0116 </r>
        <r>  0.0156  0.0134  0.0131 </r>
        <r>  0.0119  0.0223  0.0109 </r>
        <r>  0.0197  0.0094  0.0045 </r>
        <r>  0.0020  0.0035  0.0096 </r>
        <r>  0.0223  0.0052  0.0043 </r>
        <r>  0.0019  0.0020  0.0107 </r>
        <r>  0.0012  0.0079  0.0021 </r>
        <r>  0.0071  0.0035  0.0056 </r>
        <r>  0.0012  0.0085  0.0019 </r>
        <r>  0.0079  0.0063  0.0069 </r>
        <r>  0.0050  0.0013  0.0028 </r>
        <r>  0.0041  0.0028  0.0026 </r>
        <r>  0.0070  0.0013  0.0027 </r>
        <r>  0.0036  0.0025  0.0019 </r>
        <r>  0.0000  0.0084  0.0000 </r>
       </set>
       <set comment="band 166">
        <r>  0.0019  0.0023  0.0023 </r>
        <r>  0.0015  0.0055  0.0022 </r>
        <r>  0.0010  0.0057  0.0037 </r>
        <r>  0.0001  0.0054  0.0020 </r>
        <r>  0.0006  0.0027  0.0023 </r>
        <r>  0.0089  0.0028  0.0036 </r>
        <r>  0.0005  0.0046  0.0034 </r>
        <r>  0.0009  0.0045  0.0058 </r>
        <r>  0.0008  0.0040  0.0014 </r>
        <r>  0.0057  0.0011  0.0040 </r>
        <r>  0.0001  0.0047  0.0031 </r>
        <r>  0.0007  0.0042  0.0067 </r>
        <r>  0.0013  0.0032  0.0025 </r>
        <r>  0.0010  0.0017  0.0035 </r>
        <r>  0.0031  0.0037  0.0028 </r>
        <r>  0.0004  0.0046  0.0015 </r>
        <r>  0.0003  0.0030  0.0000 </r>
       </set>
       <set comment="band 167">
        <r>  0.0044  0.0037  0.0024 </r>
        <r>  0.0020  0.0008  0.0019 </r>
        <r>  0.0013  0.0025  0.0024 </r>
        <r>  0.0010  0.0023  0.0036 </r>
        <r>  0.0009  0.0012  0.0010 </r>
        <r>  0.0007  0.0061  0.0013 </r>
        <r>  0.0013  0.0064  0.0013 </r>
        <r>  0.0007  0.0012  0.0020 </r>
        <r>  0.0048  0.0045  0.0010 </r>
        <r>  0.0004  0.0025  0.0020 </r>
        <r>  0.0013  0.0023  0.0030 </r>
        <r>  0.0014  0.0035  0.0011 </r>
        <r>  0.0064  0.0027  0.0036 </r>
        <r>  0.0004  0.0007  0.0027 </r>
        <r>  0.0007  0.0011  0.0026 </r>
        <r>  0.0019  0.0021  0.0039 </r>
        <r>  0.0002  0.0041  0.0000 </r>
       </set>
       <set comment="band 168">
        <r>  0.0007  0.0122  0.0050 </r>
        <r>  0.0092  0.0054  0.0066 </r>
        <r>  0.0012  0.0062  0.0022 </r>
        <r>  0.0036  0.0009  0.0049 </r>
        <r>  0.0009  0.0045  0.0090 </r>
        <r>  0.0070  0.0075  0.0034 </r>
        <r>  0.0032  0.0053  0.0059 </r>
        <r>  0.0025  0.0039  0.0031 </r>
        <r>  0.0052  0.0065  0.0028 </r>
        <r>  0.0015  0.0025  0.0082 </r>
        <r>  0.0038  0.0030  0.0046 </r>
        <r>  0.0014  0.0063  0.0039 </r>
        <r>  0.0031  0.0039  0.0055 </r>
        <r>  0.0064  0.0012  0.0063 </r>
        <r>  0.0026  0.0112  0.0048 </r>
        <r>  0.0030  0.0056  0.0079 </r>
        <r>  0.0062  0.0112  0.0000 </r>
       </set>
      </set>
     </set>
    </set>
   </array>
  </projected>
 </calculation>
 <structure name="finalpos" >
  <crystal>
   <varray name="basis" >
    <v>       5.01969481       0.00000000       0.00000000 </v>
    <v>       2.50984740       4.34718322       0.00000000 </v>
    <v>       0.00000000       0.00000000      26.20742226 </v>
   </varray>
   <i name="volume">    571.88613037 </i>
   <varray name="rec_basis" >
    <v>       0.19921530      -0.11501701       0.00000000 </v>
    <v>       0.00000000       0.23003401       0.00000000 </v>
    <v>       0.00000000       0.00000000       0.03815713 </v>
   </varray>
  </crystal>
  <varray name="positions" >
   <v>       0.00000000       0.00000000       0.00000000 </v>
   <v>       0.00000000       0.50000000       0.00000000 </v>
   <v>       0.50000000       0.00000000       0.00000000 </v>
   <v>       0.50000000       0.50000000       0.00000000 </v>
   <v>       0.16666667       0.16666667       0.07819471 </v>
   <v>       0.16666667       0.66666669       0.07819471 </v>
   <v>       0.66666669       0.16666667       0.07819471 </v>
   <v>       0.66666669       0.66666669       0.07819471 </v>
   <v>       0.33310555       0.33424651       0.15685781 </v>
   <v>       0.33310555       0.83264800       0.15685781 </v>
   <v>       0.83152446       0.33423780       0.15685041 </v>
   <v>       0.83254424       0.83372794       0.15672356 </v>
   <v>       0.99446141      -0.00366948       0.23666764 </v>
   <v>       0.99446141       0.50920807       0.23666764 </v>
   <v>       0.50781087       0.99609457       0.23665240 </v>
   <v>       0.49841960       0.50079020       0.23868218 </v>
   <v>       0.16564859       0.16717571       0.27819260 </v>
  </varray>
  <varray name="selective"  type="logical" >
   <v type="logical" >  F  F  F </v>
   <v type="logical" >  F  F  F </v>
   <v type="logical" >  F  F  F </v>
   <v type="logical" >  F  F  F </v>
   <v type="logical" >  F  F  F </v>
   <v type="logical" >  F  F  F </v>
   <v type="logical" >  F  F  F </v>
   <v type="logical" >  F  F  F </v>
   <v type="logical" >  T  T  T </v>
   <v type="logical" >  T  T  T </v>
   <v type="logical" >  T  T  T </v>
   <v type="logical" >  T  T  T </v>
   <v type="logical" >  T  T  T </v>
   <v type="logical" >  T  T  T </v>
   <v type="logical" >  T  T  T </v>
   <v type="logical" >  T  T  T </v>
   <v type="logical" >  T  T  T </v>
  </varray>
  <nose>
   <v>      -3.00000000       0.00000000       0.00010000       0.00010000 </v>
  </nose>
 </structure>
</modeling>
