unknown system                          
           1
     5.019695    0.000000    0.000000
     2.509847    4.347183    0.000000
     0.000000    0.000000   26.207422
   Cu   C 
  16   1
Direct configuration=     1
   0.00000000  0.00000000  0.00000000
   0.00000000  0.50000000  0.00000000
   0.50000000  0.00000000  0.00000000
   0.50000000  0.50000000  0.00000000
   0.16666667  0.16666667  0.07819471
   0.16666667  0.66666669  0.07819471
   0.66666669  0.16666667  0.07819471
   0.66666669  0.66666669  0.07819471
   0.33150195  0.33424904  0.15728548
   0.33150195  0.83424907  0.15728548
   0.83182595  0.33408705  0.15702669
   0.83182595  0.83408708  0.15702669
   0.98494900  0.00752550  0.23928406
   0.98494900  0.50752550  0.23928406
   0.50383311  0.99808344  0.23745072
   0.50383311  0.49808344  0.23745072
   0.18349913  0.15825044  0.28461970
Direct configuration=     2
   0.00000000  0.00000000  0.00000000
   0.00000000  0.50000000  0.00000000
   0.50000000  0.00000000  0.00000000
   0.50000000  0.50000000  0.00000000
   0.16666667  0.16666667  0.07819471
   0.16666667  0.66666669  0.07819471
   0.66666669  0.16666667  0.07819471
   0.66666669  0.66666669  0.07819471
   0.33116371  0.33470656  0.15738611
   0.33116371  0.83412979  0.15738611
   0.83205500  0.33397253  0.15709661
   0.83219515  0.83390248  0.15732586
   0.99195999  0.00441806  0.23978660
   0.99195999  0.50362195  0.23978660
   0.50131223  0.99934389  0.23774967
   0.49730972  0.50134514  0.23765373
   0.17875965  0.16062018  0.28220122
Direct configuration=     3
   0.00000000  0.00000000  0.00000000
   0.00000000  0.50000000  0.00000000
   0.50000000  0.00000000  0.00000000
   0.50000000  0.50000000  0.00000000
   0.16666667  0.16666667  0.07819471
   0.16666667  0.66666669  0.07819471
   0.66666669  0.16666667  0.07819471
   0.66666669  0.66666669  0.07819471
   0.33112982  0.33475240  0.15739619
   0.33112982  0.83411784  0.15739619
   0.83207794  0.33396106  0.15710361
   0.83223214  0.83388399  0.15735584
   0.99266240  0.00410673  0.23983695
   0.99266240  0.50323086  0.23983695
   0.50105966  0.99947017  0.23777962
   0.49665615  0.50167192  0.23767407
   0.17828481  0.16085760  0.28195892
Direct configuration=     4
   0.00000000  0.00000000  0.00000000
   0.00000000  0.50000000  0.00000000
   0.50000000  0.00000000  0.00000000
   0.50000000  0.50000000  0.00000000
   0.16666667  0.16666667  0.07819471
   0.16666667  0.66666669  0.07819471
   0.66666669  0.16666667  0.07819471
   0.66666669  0.66666669  0.07819471
   0.33110283  0.33487875  0.15742715
   0.33110283  0.83401848  0.15742715
   0.83203262  0.33398372  0.15727904
   0.83238055  0.83380979  0.15777580
   0.99375286 -0.00019199  0.23968658
   0.99375286  0.50643913  0.23968658
   0.50657193  0.99671404  0.23746349
   0.49336690  0.50331655  0.23786191
   0.17396320  0.16301841  0.28116539
Direct configuration=     5
   0.00000000  0.00000000  0.00000000
   0.00000000  0.50000000  0.00000000
   0.50000000  0.00000000  0.00000000
   0.50000000  0.50000000  0.00000000
   0.16666667  0.16666667  0.07819471
   0.16666667  0.66666669  0.07819471
   0.66666669  0.16666667  0.07819471
   0.66666669  0.66666669  0.07819471
   0.33109510  0.33491493  0.15743602
   0.33109510  0.83399002  0.15743602
   0.83201964  0.33399021  0.15732927
   0.83242304  0.83378854  0.15789606
   0.99406512 -0.00142293  0.23964353
   0.99406512  0.50735781  0.23964353
   0.50815037  0.99592481  0.23737296
   0.49242502  0.50378749  0.23791570
   0.17272570  0.16363716  0.28093817
Direct configuration=     6
   0.00000000  0.00000000  0.00000000
   0.00000000  0.50000000  0.00000000
   0.50000000  0.00000000  0.00000000
   0.50000000  0.50000000  0.00000000
   0.16666667  0.16666667  0.07819471
   0.16666667  0.66666669  0.07819471
   0.66666669  0.16666667  0.07819471
   0.66666669  0.66666669  0.07819471
   0.33127532  0.33472743  0.15737720
   0.33127532  0.83399730  0.15737720
   0.83181065  0.33409470  0.15750831
   0.83259714  0.83370149  0.15795627
   0.99337564 -0.00195921  0.23931826
   0.99337564  0.50858357  0.23931826
   0.50807658  0.99596171  0.23744508
   0.49349057  0.50325471  0.23809685
   0.17288726  0.16355638  0.28046552
Direct configuration=     7
   0.00000000  0.00000000  0.00000000
   0.00000000  0.50000000  0.00000000
   0.50000000  0.00000000  0.00000000
   0.50000000  0.50000000  0.00000000
   0.16666667  0.16666667  0.07819471
   0.16666667  0.66666669  0.07819471
   0.66666669  0.16666667  0.07819471
   0.66666669  0.66666669  0.07819471
   0.33152917  0.33446334  0.15729436
   0.33152917  0.83400756  0.15729436
   0.83151629  0.33424188  0.15776048
   0.83284235  0.83357888  0.15804109
   0.99240450 -0.00271457  0.23886011
   0.99240450  0.51031007  0.23886011
   0.50797266  0.99601367  0.23754667
   0.49499144  0.50250428  0.23835200
   0.17311483  0.16344259  0.27979978
Direct configuration=     8
   0.00000000  0.00000000  0.00000000
   0.00000000  0.50000000  0.00000000
   0.50000000  0.00000000  0.00000000
   0.50000000  0.50000000  0.00000000
   0.16666667  0.16666667  0.07819471
   0.16666667  0.66666669  0.07819471
   0.66666669  0.16666667  0.07819471
   0.66666669  0.66666669  0.07819471
   0.33188932  0.33424988  0.15721241
   0.33188932  0.83386086  0.15721241
   0.83119566  0.33440220  0.15781053
   0.83282475  0.83358769  0.15788635
   0.99263890 -0.00226773  0.23848749
   0.99263890  0.50962883  0.23848749
   0.50831380  0.99584310  0.23739749
   0.49623492  0.50188254  0.23861011
   0.17098775  0.16450613  0.27928365
Direct configuration=     9
   0.00000000  0.00000000  0.00000000
   0.00000000  0.50000000  0.00000000
   0.50000000  0.00000000  0.00000000
   0.50000000  0.50000000  0.00000000
   0.16666667  0.16666667  0.07819471
   0.16666667  0.66666669  0.07819471
   0.66666669  0.16666667  0.07819471
   0.66666669  0.66666669  0.07819471
   0.33208389  0.33413457  0.15716813
   0.33208389  0.83378160  0.15716813
   0.83102244  0.33448881  0.15783757
   0.83281524  0.83359244  0.15780275
   0.99276554 -0.00202633  0.23828618
   0.99276554  0.50926079  0.23828618
   0.50849811  0.99575095  0.23731690
   0.49690671  0.50154664  0.23874955
   0.16983859  0.16508071  0.27900481
Direct configuration=    10
   0.00000000  0.00000000  0.00000000
   0.00000000  0.50000000  0.00000000
   0.50000000  0.00000000  0.00000000
   0.50000000  0.50000000  0.00000000
   0.16666667  0.16666667  0.07819471
   0.16666667  0.66666669  0.07819471
   0.66666669  0.16666667  0.07819471
   0.66666669  0.66666669  0.07819471
   0.33234661  0.33419804  0.15710482
   0.33234661  0.83345541  0.15710482
   0.83083190  0.33458408  0.15762984
   0.83286327  0.83356842  0.15749802
   0.99330499 -0.00277767  0.23788479
   0.99330499  0.50947268  0.23788479
   0.50887026  0.99556487  0.23706248
   0.49691344  0.50154328  0.23891391
   0.16829959  0.16585022  0.27900207
Direct configuration=    11
   0.00000000  0.00000000  0.00000000
   0.00000000  0.50000000  0.00000000
   0.50000000  0.00000000  0.00000000
   0.50000000  0.50000000  0.00000000
   0.16666667  0.16666667  0.07819471
   0.16666667  0.66666669  0.07819471
   0.66666669  0.16666667  0.07819471
   0.66666669  0.66666669  0.07819471
   0.33249326  0.33423347  0.15706948
   0.33249326  0.83327332  0.15706948
   0.83072554  0.33463726  0.15751388
   0.83289009  0.83355501  0.15732791
   0.99360611 -0.00319708  0.23766072
   0.99360611  0.50959097  0.23766072
   0.50907799  0.99546100  0.23692046
   0.49691720  0.50154140  0.23900565
   0.16744050  0.16627976  0.27900055
Direct configuration=    12
   0.00000000  0.00000000  0.00000000
   0.00000000  0.50000000  0.00000000
   0.50000000  0.00000000  0.00000000
   0.50000000  0.50000000  0.00000000
   0.16666667  0.16666667  0.07819471
   0.16666667  0.66666669  0.07819471
   0.66666669  0.16666667  0.07819471
   0.66666669  0.66666669  0.07819471
   0.33268508  0.33437256  0.15700455
   0.33268508  0.83294242  0.15700455
   0.83079640  0.33460183  0.15719670
   0.83296823  0.83351594  0.15692415
   0.99470280 -0.00361289  0.23727351
   0.99470280  0.50891010  0.23727351
   0.50718293  0.99640854  0.23682376
   0.49692495  0.50153753  0.23911775
   0.16696619  0.16651691  0.27878219
Direct configuration=    13
   0.00000000  0.00000000  0.00000000
   0.00000000  0.50000000  0.00000000
   0.50000000  0.00000000  0.00000000
   0.50000000  0.50000000  0.00000000
   0.16666667  0.16666667  0.07819471
   0.16666667  0.66666669  0.07819471
   0.66666669  0.16666667  0.07819471
   0.66666669  0.66666669  0.07819471
   0.33267792  0.33436737  0.15700697
   0.33267792  0.83295476  0.15700697
   0.83079375  0.33460315  0.15720853
   0.83296532  0.83351740  0.15693921
   0.99466188 -0.00359738  0.23728796
   0.99466188  0.50893550  0.23728796
   0.50725363  0.99637318  0.23682737
   0.49692466  0.50153767  0.23911357
   0.16698388  0.16650807  0.27879034
Direct configuration=    14
   0.00000000  0.00000000  0.00000000
   0.00000000  0.50000000  0.00000000
   0.50000000  0.00000000  0.00000000
   0.50000000  0.50000000  0.00000000
   0.16666667  0.16666667  0.07819471
   0.16666667  0.66666669  0.07819471
   0.66666669  0.16666667  0.07819471
   0.66666669  0.66666669  0.07819471
   0.33280011  0.33434053  0.15697392
   0.33280011  0.83285942  0.15697392
   0.83101722  0.33449142  0.15707534
   0.83280509  0.83359752  0.15683434
   0.99439016 -0.00343667  0.23710800
   0.99439016  0.50904651  0.23710800
   0.50722515  0.99638742  0.23678649
   0.49756986  0.50121507  0.23908878
   0.16683834  0.16658084  0.27867763
Direct configuration=    15
   0.00000000  0.00000000  0.00000000
   0.00000000  0.50000000  0.00000000
   0.50000000  0.00000000  0.00000000
   0.50000000  0.50000000  0.00000000
   0.16666667  0.16666667  0.07819471
   0.16666667  0.66666669  0.07819471
   0.66666669  0.16666667  0.07819471
   0.66666669  0.66666669  0.07819471
   0.33292317  0.33431349  0.15694063
   0.33292317  0.83276340  0.15694063
   0.83124231  0.33437888  0.15694120
   0.83264370  0.83367821  0.15672872
   0.99411648 -0.00327480  0.23692674
   0.99411648  0.50915831  0.23692674
   0.50719646  0.99640177  0.23674531
   0.49821972  0.50089014  0.23906382
   0.16669176  0.16665413  0.27856412
Direct configuration=    16
   0.00000000  0.00000000  0.00000000
   0.00000000  0.50000000  0.00000000
   0.50000000  0.00000000  0.00000000
   0.50000000  0.50000000  0.00000000
   0.16666667  0.16666667  0.07819471
   0.16666667  0.66666669  0.07819471
   0.66666669  0.16666667  0.07819471
   0.66666669  0.66666669  0.07819471
   0.33300658  0.33431332  0.15692166
   0.33300658  0.83268016  0.15692166
   0.83141555  0.33429226  0.15689152
   0.83250108  0.83374952  0.15674946
   0.99412405 -0.00323043  0.23684744
   0.99412405  0.50910638  0.23684744
   0.50775050  0.99612475  0.23668997
   0.49840811  0.50079595  0.23896400
   0.16603159  0.16698421  0.27839083
Direct configuration=    17
   0.00000000  0.00000000  0.00000000
   0.00000000  0.50000000  0.00000000
   0.50000000  0.00000000  0.00000000
   0.50000000  0.50000000  0.00000000
   0.16666667  0.16666667  0.07819471
   0.16666667  0.66666669  0.07819471
   0.66666669  0.16666667  0.07819471
   0.66666669  0.66666669  0.07819471
   0.33302217  0.33431329  0.15691811
   0.33302217  0.83266460  0.15691811
   0.83144793  0.33427606  0.15688224
   0.83247441  0.83376285  0.15675334
   0.99412546 -0.00322214  0.23683262
   0.99412546  0.50909667  0.23683262
   0.50785407  0.99607296  0.23667963
   0.49844332  0.50077834  0.23894534
   0.16590818  0.16704592  0.27835844
Direct configuration=    18
   0.00000000  0.00000000  0.00000000
   0.00000000  0.50000000  0.00000000
   0.50000000  0.00000000  0.00000000
   0.50000000  0.50000000  0.00000000
   0.16666667  0.16666667  0.07819471
   0.16666667  0.66666669  0.07819471
   0.66666669  0.16666667  0.07819471
   0.66666669  0.66666669  0.07819471
   0.33306204  0.33433739  0.15689640
   0.33306204  0.83260062  0.15689640
   0.83154868  0.33422569  0.15686443
   0.83252550  0.83373731  0.15678414
   0.99427945 -0.00364594  0.23672853
   0.99427945  0.50936650  0.23672853
   0.50787172  0.99606414  0.23667275
   0.49832409  0.50083795  0.23880080
   0.16580229  0.16709886  0.27820605
Direct configuration=    19
   0.00000000  0.00000000  0.00000000
   0.00000000  0.50000000  0.00000000
   0.50000000  0.00000000  0.00000000
   0.50000000  0.50000000  0.00000000
   0.16666667  0.16666667  0.07819471
   0.16666667  0.66666669  0.07819471
   0.66666669  0.16666667  0.07819471
   0.66666669  0.66666669  0.07819471
   0.33308348  0.33435036  0.15688473
   0.33308348  0.83256622  0.15688473
   0.83160286  0.33419860  0.15685486
   0.83255297  0.83372358  0.15680070
   0.99436225 -0.00387384  0.23667256
   0.99436225  0.50951160  0.23667256
   0.50788121  0.99605940  0.23666906
   0.49825997  0.50087001  0.23872307
   0.16574535  0.16712733  0.27812410
Direct configuration=    20
   0.00000000  0.00000000  0.00000000
   0.00000000  0.50000000  0.00000000
   0.50000000  0.00000000  0.00000000
   0.50000000  0.50000000  0.00000000
   0.16666667  0.16666667  0.07819471
   0.16666667  0.66666669  0.07819471
   0.66666669  0.16666667  0.07819471
   0.66666669  0.66666669  0.07819471
   0.33310416  0.33425304  0.15685950
   0.33310416  0.83264286  0.15685950
   0.83152939  0.33423534  0.15685069
   0.83254479  0.83372767  0.15672841
   0.99445517 -0.00368232  0.23666795
   0.99445517  0.50922715  0.23666795
   0.50781529  0.99609236  0.23665345
   0.49840957  0.50079522  0.23868475
   0.16565467  0.16717267  0.27818829
Direct configuration=    21
   0.00000000  0.00000000  0.00000000
   0.00000000  0.50000000  0.00000000
   0.50000000  0.00000000  0.00000000
   0.50000000  0.50000000  0.00000000
   0.16666667  0.16666667  0.07819471
   0.16666667  0.66666669  0.07819471
   0.66666669  0.16666667  0.07819471
   0.66666669  0.66666669  0.07819471
   0.33310555  0.33424651  0.15685781
   0.33310555  0.83264800  0.15685781
   0.83152446  0.33423780  0.15685041
   0.83254424  0.83372794  0.15672356
   0.99446141 -0.00366948  0.23666764
   0.99446141  0.50920807  0.23666764
   0.50781087  0.99609457  0.23665240
   0.49841960  0.50079020  0.23868218
   0.16564859  0.16717571  0.27819260
