  38  38   1   0
  0.3386168E+02  0.7529542E-09  0.7529542E-09  0.2620742E-08  0.5000000E-15
  1.000000000000000E-004
  CAR 
 unknown system                          
     11.69603406    -75.79700755  301     -1.02936711      1.00000000
    -75.797  0.0000E+00  0.0000E+00
    -75.505  0.0000E+00  0.0000E+00
    -75.214  0.0000E+00  0.0000E+00
    -74.922  0.0000E+00  0.0000E+00
    -74.630  0.0000E+00  0.0000E+00
    -74.339  0.0000E+00  0.0000E+00
    -74.047  0.0000E+00  0.0000E+00
    -73.756  0.0000E+00  0.0000E+00
    -73.464  0.0000E+00  0.0000E+00
    -73.172  0.0000E+00  0.0000E+00
    -72.881  0.0000E+00  0.0000E+00
    -72.589  0.0000E+00  0.0000E+00
    -72.297  0.4482E-12  0.1307E-12
    -72.006  0.4663E-03  0.1360E-03
    -71.714  0.2367E+00  0.6916E-01
    -71.422  0.4083E+00  0.1882E+00
    -71.131  0.7999E+00  0.4215E+00
    -70.839  0.2447E+01  0.1135E+01
    -70.547  0.1043E+01  0.1439E+01
    -70.256  0.2391E-02  0.1440E+01
    -69.964  0.1789E-10  0.1440E+01
    -69.672  0.0000E+00  0.1440E+01
    -69.381  0.0000E+00  0.1440E+01
    -69.089  0.0000E+00  0.1440E+01
    -68.798  0.0000E+00  0.1440E+01
    -68.506  0.0000E+00  0.1440E+01
    -68.214  0.0000E+00  0.1440E+01
    -67.923  0.0000E+00  0.1440E+01
    -67.631  0.0000E+00  0.1440E+01
    -67.339  0.0000E+00  0.1440E+01
    -67.048  0.0000E+00  0.1440E+01
    -66.756  0.0000E+00  0.1440E+01
    -66.464  0.0000E+00  0.1440E+01
    -66.173  0.0000E+00  0.1440E+01
    -65.881  0.0000E+00  0.1440E+01
    -65.589  0.0000E+00  0.1440E+01
    -65.298  0.0000E+00  0.1440E+01
    -65.006  0.0000E+00  0.1440E+01
    -64.715  0.0000E+00  0.1440E+01
    -64.423  0.0000E+00  0.1440E+01
    -64.131  0.0000E+00  0.1440E+01
    -63.840  0.0000E+00  0.1440E+01
    -63.548  0.0000E+00  0.1440E+01
    -63.256  0.0000E+00  0.1440E+01
    -62.965  0.0000E+00  0.1440E+01
    -62.673  0.0000E+00  0.1440E+01
    -62.381  0.0000E+00  0.1440E+01
    -62.090  0.0000E+00  0.1440E+01
    -61.798  0.0000E+00  0.1440E+01
    -61.506  0.0000E+00  0.1440E+01
    -61.215  0.0000E+00  0.1440E+01
    -60.923  0.0000E+00  0.1440E+01
    -60.632  0.0000E+00  0.1440E+01
    -60.340  0.0000E+00  0.1440E+01
    -60.048  0.0000E+00  0.1440E+01
    -59.757  0.0000E+00  0.1440E+01
    -59.465  0.0000E+00  0.1440E+01
    -59.173  0.0000E+00  0.1440E+01
    -58.882  0.0000E+00  0.1440E+01
    -58.590  0.0000E+00  0.1440E+01
    -58.298  0.0000E+00  0.1440E+01
    -58.007  0.0000E+00  0.1440E+01
    -57.715  0.0000E+00  0.1440E+01
    -57.423  0.0000E+00  0.1440E+01
    -57.132  0.0000E+00  0.1440E+01
    -56.840  0.0000E+00  0.1440E+01
    -56.549  0.0000E+00  0.1440E+01
    -56.257  0.0000E+00  0.1440E+01
    -55.965  0.0000E+00  0.1440E+01
    -55.674  0.0000E+00  0.1440E+01
    -55.382  0.0000E+00  0.1440E+01
    -55.090  0.0000E+00  0.1440E+01
    -54.799  0.0000E+00  0.1440E+01
    -54.507  0.0000E+00  0.1440E+01
    -54.215  0.0000E+00  0.1440E+01
    -53.924  0.0000E+00  0.1440E+01
    -53.632  0.0000E+00  0.1440E+01
    -53.340  0.0000E+00  0.1440E+01
    -53.049  0.0000E+00  0.1440E+01
    -52.757  0.0000E+00  0.1440E+01
    -52.466  0.0000E+00  0.1440E+01
    -52.174  0.0000E+00  0.1440E+01
    -51.882  0.0000E+00  0.1440E+01
    -51.591  0.0000E+00  0.1440E+01
    -51.299  0.0000E+00  0.1440E+01
    -51.007  0.0000E+00  0.1440E+01
    -50.716  0.0000E+00  0.1440E+01
    -50.424  0.0000E+00  0.1440E+01
    -50.132  0.0000E+00  0.1440E+01
    -49.841  0.0000E+00  0.1440E+01
    -49.549  0.0000E+00  0.1440E+01
    -49.257  0.0000E+00  0.1440E+01
    -48.966  0.0000E+00  0.1440E+01
    -48.674  0.0000E+00  0.1440E+01
    -48.383  0.0000E+00  0.1440E+01
    -48.091  0.0000E+00  0.1440E+01
    -47.799  0.0000E+00  0.1440E+01
    -47.508  0.0000E+00  0.1440E+01
    -47.216  0.0000E+00  0.1440E+01
    -46.924  0.0000E+00  0.1440E+01
    -46.633  0.0000E+00  0.1440E+01
    -46.341  0.0000E+00  0.1440E+01
    -46.049  0.0000E+00  0.1440E+01
    -45.758  0.0000E+00  0.1440E+01
    -45.466  0.0000E+00  0.1440E+01
    -45.174  0.0000E+00  0.1440E+01
    -44.883  0.0000E+00  0.1440E+01
    -44.591  0.0000E+00  0.1440E+01
    -44.300  0.0000E+00  0.1440E+01
    -44.008  0.0000E+00  0.1440E+01
    -43.716  0.0000E+00  0.1440E+01
    -43.425  0.0000E+00  0.1440E+01
    -43.133  0.0000E+00  0.1440E+01
    -42.841  0.0000E+00  0.1440E+01
    -42.550  0.0000E+00  0.1440E+01
    -42.258  0.0000E+00  0.1440E+01
    -41.966  0.0000E+00  0.1440E+01
    -41.675  0.0000E+00  0.1440E+01
    -41.383  0.0000E+00  0.1440E+01
    -41.091  0.0000E+00  0.1440E+01
    -40.800  0.0000E+00  0.1440E+01
    -40.508  0.0000E+00  0.1440E+01
    -40.217  0.0000E+00  0.1440E+01
    -39.925  0.0000E+00  0.1440E+01
    -39.633  0.0000E+00  0.1440E+01
    -39.342  0.0000E+00  0.1440E+01
    -39.050  0.0000E+00  0.1440E+01
    -38.758  0.0000E+00  0.1440E+01
    -38.467  0.0000E+00  0.1440E+01
    -38.175  0.0000E+00  0.1440E+01
    -37.883  0.0000E+00  0.1440E+01
    -37.592  0.0000E+00  0.1440E+01
    -37.300  0.0000E+00  0.1440E+01
    -37.008  0.0000E+00  0.1440E+01
    -36.717  0.0000E+00  0.1440E+01
    -36.425  0.0000E+00  0.1440E+01
    -36.133  0.0000E+00  0.1440E+01
    -35.842  0.0000E+00  0.1440E+01
    -35.550  0.0000E+00  0.1440E+01
    -35.259  0.0000E+00  0.1440E+01
    -34.967  0.0000E+00  0.1440E+01
    -34.675  0.0000E+00  0.1440E+01
    -34.384  0.0000E+00  0.1440E+01
    -34.092  0.0000E+00  0.1440E+01
    -33.800  0.0000E+00  0.1440E+01
    -33.509  0.0000E+00  0.1440E+01
    -33.217  0.0000E+00  0.1440E+01
    -32.925  0.0000E+00  0.1440E+01
    -32.634  0.0000E+00  0.1440E+01
    -32.342  0.0000E+00  0.1440E+01
    -32.050  0.0000E+00  0.1440E+01
    -31.759  0.0000E+00  0.1440E+01
    -31.467  0.0000E+00  0.1440E+01
    -31.176  0.0000E+00  0.1440E+01
    -30.884  0.0000E+00  0.1440E+01
    -30.592  0.0000E+00  0.1440E+01
    -30.301  0.0000E+00  0.1440E+01
    -30.009  0.0000E+00  0.1440E+01
    -29.717  0.0000E+00  0.1440E+01
    -29.426  0.0000E+00  0.1440E+01
    -29.134  0.0000E+00  0.1440E+01
    -28.842  0.0000E+00  0.1440E+01
    -28.551  0.0000E+00  0.1440E+01
    -28.259  0.0000E+00  0.1440E+01
    -27.967  0.0000E+00  0.1440E+01
    -27.676  0.0000E+00  0.1440E+01
    -27.384  0.0000E+00  0.1440E+01
    -27.093  0.0000E+00  0.1440E+01
    -26.801  0.0000E+00  0.1440E+01
    -26.509  0.0000E+00  0.1440E+01
    -26.218  0.0000E+00  0.1440E+01
    -25.926  0.0000E+00  0.1440E+01
    -25.634  0.0000E+00  0.1440E+01
    -25.343  0.0000E+00  0.1440E+01
    -25.051  0.0000E+00  0.1440E+01
    -24.759  0.0000E+00  0.1440E+01
    -24.468  0.0000E+00  0.1440E+01
    -24.176  0.0000E+00  0.1440E+01
    -23.884  0.0000E+00  0.1440E+01
    -23.593  0.0000E+00  0.1440E+01
    -23.301  0.0000E+00  0.1440E+01
    -23.010  0.0000E+00  0.1440E+01
    -22.718  0.0000E+00  0.1440E+01
    -22.426  0.0000E+00  0.1440E+01
    -22.135  0.0000E+00  0.1440E+01
    -21.843  0.0000E+00  0.1440E+01
    -21.551  0.0000E+00  0.1440E+01
    -21.260  0.0000E+00  0.1440E+01
    -20.968  0.0000E+00  0.1440E+01
    -20.676  0.0000E+00  0.1440E+01
    -20.385  0.0000E+00  0.1440E+01
    -20.093  0.0000E+00  0.1440E+01
    -19.801  0.0000E+00  0.1440E+01
    -19.510  0.0000E+00  0.1440E+01
    -19.218  0.0000E+00  0.1440E+01
    -18.927  0.0000E+00  0.1440E+01
    -18.635  0.0000E+00  0.1440E+01
    -18.343  0.0000E+00  0.1440E+01
    -18.052  0.0000E+00  0.1440E+01
    -17.760  0.0000E+00  0.1440E+01
    -17.468  0.0000E+00  0.1440E+01
    -17.177  0.0000E+00  0.1440E+01
    -16.885  0.0000E+00  0.1440E+01
    -16.593  0.0000E+00  0.1440E+01
    -16.302  0.0000E+00  0.1440E+01
    -16.010  0.0000E+00  0.1440E+01
    -15.718  0.0000E+00  0.1440E+01
    -15.427  0.0000E+00  0.1440E+01
    -15.135  0.0000E+00  0.1440E+01
    -14.844  0.0000E+00  0.1440E+01
    -14.552  0.0000E+00  0.1440E+01
    -14.260  0.0000E+00  0.1440E+01
    -13.969  0.0000E+00  0.1440E+01
    -13.677  0.0000E+00  0.1440E+01
    -13.385  0.0000E+00  0.1440E+01
    -13.094  0.0000E+00  0.1440E+01
    -12.802  0.1087E-10  0.1440E+01
    -12.510  0.2564E-03  0.1440E+01
    -12.219  0.3723E-01  0.1451E+01
    -11.927  0.5189E-01  0.1466E+01
    -11.635  0.2064E-02  0.1467E+01
    -11.344  0.1725E-08  0.1467E+01
    -11.052  0.0000E+00  0.1467E+01
    -10.761  0.3965E-17  0.1467E+01
    -10.469  0.2254E-06  0.1467E+01
    -10.177  0.1873E-02  0.1467E+01
     -9.886  0.1678E-01  0.1472E+01
     -9.594  0.6931E-02  0.1474E+01
     -9.302  0.2387E-01  0.1481E+01
     -9.011  0.4848E-02  0.1483E+01
     -8.719  0.2235E-01  0.1489E+01
     -8.427  0.3313E-01  0.1499E+01
     -8.136  0.3423E-01  0.1509E+01
     -7.844  0.1876E-01  0.1514E+01
     -7.552  0.5857E-01  0.1531E+01
     -7.261  0.4192E-01  0.1543E+01
     -6.969  0.3030E-01  0.1552E+01
     -6.678  0.8928E-01  0.1578E+01
     -6.386  0.1071E+00  0.1610E+01
     -6.094  0.1775E+00  0.1661E+01
     -5.803  0.2825E+00  0.1744E+01
     -5.511  0.3084E+00  0.1834E+01
     -5.219  0.5033E+00  0.1980E+01
     -4.928  0.4739E+00  0.2119E+01
     -4.636  0.5130E+00  0.2268E+01
     -4.344  0.5967E+00  0.2442E+01
     -4.053  0.7853E+00  0.2671E+01
     -3.761  0.9488E+00  0.2948E+01
     -3.469  0.6927E+00  0.3150E+01
     -3.178  0.7881E+00  0.3380E+01
     -2.886  0.8204E+00  0.3619E+01
     -2.594  0.1002E+01  0.3911E+01
     -2.303  0.3171E+00  0.4004E+01
     -2.011  0.1231E+00  0.4040E+01
     -1.720  0.9555E-01  0.4068E+01
     -1.428  0.7905E-01  0.4091E+01
     -1.136  0.1034E+00  0.4121E+01
     -0.845  0.9845E-01  0.4149E+01
     -0.553  0.8227E-01  0.4173E+01
     -0.261  0.7649E-01  0.4196E+01
      0.030  0.8657E-01  0.4221E+01
      0.322  0.6384E-01  0.4240E+01
      0.614  0.9904E-01  0.4269E+01
      0.905  0.8520E-01  0.4293E+01
      1.197  0.3136E-01  0.4303E+01
      1.489  0.8727E-01  0.4328E+01
      1.780  0.8533E-01  0.4353E+01
      2.072  0.5109E-01  0.4368E+01
      2.363  0.3913E-01  0.4379E+01
      2.655  0.6804E-01  0.4399E+01
      2.947  0.4665E-01  0.4413E+01
      3.238  0.4212E-01  0.4425E+01
      3.530  0.7187E-01  0.4446E+01
      3.822  0.9509E-01  0.4474E+01
      4.113  0.7136E-01  0.4494E+01
      4.405  0.8019E-01  0.4518E+01
      4.697  0.1191E+00  0.4553E+01
      4.988  0.1110E+00  0.4585E+01
      5.280  0.1209E+00  0.4620E+01
      5.572  0.1362E+00  0.4660E+01
      5.863  0.1242E+00  0.4696E+01
      6.155  0.1308E+00  0.4734E+01
      6.446  0.1410E+00  0.4775E+01
      6.738  0.1506E+00  0.4819E+01
      7.030  0.1367E+00  0.4859E+01
      7.321  0.1402E+00  0.4900E+01
      7.613  0.1494E+00  0.4944E+01
      7.905  0.5604E-01  0.4960E+01
      8.196  0.9468E-04  0.4960E+01
      8.488  0.1189E-12  0.4960E+01
      8.780  0.0000E+00  0.4960E+01
      9.071  0.0000E+00  0.4960E+01
      9.363  0.0000E+00  0.4960E+01
      9.655  0.0000E+00  0.4960E+01
      9.946  0.0000E+00  0.4960E+01
     10.238  0.0000E+00  0.4960E+01
     10.529  0.0000E+00  0.4960E+01
     10.821  0.0000E+00  0.4960E+01
     11.113  0.0000E+00  0.4960E+01
     11.404  0.0000E+00  0.4960E+01
     11.696  0.0000E+00  0.4960E+01
     11.69603406    -75.79700755  301     -1.02936711      1.00000000
    -75.797  0.0000E+00  0.0000E+00  0.0000E+00
    -75.505  0.0000E+00  0.0000E+00  0.0000E+00
    -75.214  0.0000E+00  0.0000E+00  0.0000E+00
    -74.922  0.0000E+00  0.0000E+00  0.0000E+00
    -74.630  0.0000E+00  0.0000E+00  0.0000E+00
    -74.339  0.0000E+00  0.0000E+00  0.0000E+00
    -74.047  0.0000E+00  0.0000E+00  0.0000E+00
    -73.756  0.0000E+00  0.0000E+00  0.0000E+00
    -73.464  0.0000E+00  0.0000E+00  0.0000E+00
    -73.172  0.0000E+00  0.0000E+00  0.0000E+00
    -72.881  0.0000E+00  0.0000E+00  0.0000E+00
    -72.589  0.0000E+00  0.0000E+00  0.0000E+00
    -72.297  0.3916E-21  0.8893E-19  0.5234E-19
    -72.006  0.5567E-12  0.1026E-09  0.4667E-10
    -71.714  0.2862E-09  0.5654E-07  0.2073E-07
    -71.422  0.7396E-09  0.1112E-05  0.3298E-07
    -71.131  0.5257E-05  0.2782E-01  0.9207E-05
    -70.839  0.2206E-04  0.8448E+01  0.4640E-04
    -70.547  0.1888E-04  0.1202E+02  0.2559E-04
    -70.256  0.1345E-07  0.7350E-02  0.4329E-08
    -69.964  0.2453E-17  0.1211E-11  0.4685E-17
    -69.672  0.0000E+00  0.0000E+00  0.0000E+00
    -69.381  0.0000E+00  0.0000E+00  0.0000E+00
    -69.089  0.0000E+00  0.0000E+00  0.0000E+00
    -68.798  0.0000E+00  0.0000E+00  0.0000E+00
    -68.506  0.0000E+00  0.0000E+00  0.0000E+00
    -68.214  0.0000E+00  0.0000E+00  0.0000E+00
    -67.923  0.0000E+00  0.0000E+00  0.0000E+00
    -67.631  0.0000E+00  0.0000E+00  0.0000E+00
    -67.339  0.0000E+00  0.0000E+00  0.0000E+00
    -67.048  0.0000E+00  0.0000E+00  0.0000E+00
    -66.756  0.0000E+00  0.0000E+00  0.0000E+00
    -66.464  0.0000E+00  0.0000E+00  0.0000E+00
    -66.173  0.0000E+00  0.0000E+00  0.0000E+00
    -65.881  0.0000E+00  0.0000E+00  0.0000E+00
    -65.589  0.0000E+00  0.0000E+00  0.0000E+00
    -65.298  0.0000E+00  0.0000E+00  0.0000E+00
    -65.006  0.0000E+00  0.0000E+00  0.0000E+00
    -64.715  0.0000E+00  0.0000E+00  0.0000E+00
    -64.423  0.0000E+00  0.0000E+00  0.0000E+00
    -64.131  0.0000E+00  0.0000E+00  0.0000E+00
    -63.840  0.0000E+00  0.0000E+00  0.0000E+00
    -63.548  0.0000E+00  0.0000E+00  0.0000E+00
    -63.256  0.0000E+00  0.0000E+00  0.0000E+00
    -62.965  0.0000E+00  0.0000E+00  0.0000E+00
    -62.673  0.0000E+00  0.0000E+00  0.0000E+00
    -62.381  0.0000E+00  0.0000E+00  0.0000E+00
    -62.090  0.0000E+00  0.0000E+00  0.0000E+00
    -61.798  0.0000E+00  0.0000E+00  0.0000E+00
    -61.506  0.0000E+00  0.0000E+00  0.0000E+00
    -61.215  0.0000E+00  0.0000E+00  0.0000E+00
    -60.923  0.0000E+00  0.0000E+00  0.0000E+00
    -60.632  0.0000E+00  0.0000E+00  0.0000E+00
    -60.340  0.0000E+00  0.0000E+00  0.0000E+00
    -60.048  0.0000E+00  0.0000E+00  0.0000E+00
    -59.757  0.0000E+00  0.0000E+00  0.0000E+00
    -59.465  0.0000E+00  0.0000E+00  0.0000E+00
    -59.173  0.0000E+00  0.0000E+00  0.0000E+00
    -58.882  0.0000E+00  0.0000E+00  0.0000E+00
    -58.590  0.0000E+00  0.0000E+00  0.0000E+00
    -58.298  0.0000E+00  0.0000E+00  0.0000E+00
    -58.007  0.0000E+00  0.0000E+00  0.0000E+00
    -57.715  0.0000E+00  0.0000E+00  0.0000E+00
    -57.423  0.0000E+00  0.0000E+00  0.0000E+00
    -57.132  0.0000E+00  0.0000E+00  0.0000E+00
    -56.840  0.0000E+00  0.0000E+00  0.0000E+00
    -56.549  0.0000E+00  0.0000E+00  0.0000E+00
    -56.257  0.0000E+00  0.0000E+00  0.0000E+00
    -55.965  0.0000E+00  0.0000E+00  0.0000E+00
    -55.674  0.0000E+00  0.0000E+00  0.0000E+00
    -55.382  0.0000E+00  0.0000E+00  0.0000E+00
    -55.090  0.0000E+00  0.0000E+00  0.0000E+00
    -54.799  0.0000E+00  0.0000E+00  0.0000E+00
    -54.507  0.0000E+00  0.0000E+00  0.0000E+00
    -54.215  0.0000E+00  0.0000E+00  0.0000E+00
    -53.924  0.0000E+00  0.0000E+00  0.0000E+00
    -53.632  0.0000E+00  0.0000E+00  0.0000E+00
    -53.340  0.0000E+00  0.0000E+00  0.0000E+00
    -53.049  0.0000E+00  0.0000E+00  0.0000E+00
    -52.757  0.0000E+00  0.0000E+00  0.0000E+00
    -52.466  0.0000E+00  0.0000E+00  0.0000E+00
    -52.174  0.0000E+00  0.0000E+00  0.0000E+00
    -51.882  0.0000E+00  0.0000E+00  0.0000E+00
    -51.591  0.0000E+00  0.0000E+00  0.0000E+00
    -51.299  0.0000E+00  0.0000E+00  0.0000E+00
    -51.007  0.0000E+00  0.0000E+00  0.0000E+00
    -50.716  0.0000E+00  0.0000E+00  0.0000E+00
    -50.424  0.0000E+00  0.0000E+00  0.0000E+00
    -50.132  0.0000E+00  0.0000E+00  0.0000E+00
    -49.841  0.0000E+00  0.0000E+00  0.0000E+00
    -49.549  0.0000E+00  0.0000E+00  0.0000E+00
    -49.257  0.0000E+00  0.0000E+00  0.0000E+00
    -48.966  0.0000E+00  0.0000E+00  0.0000E+00
    -48.674  0.0000E+00  0.0000E+00  0.0000E+00
    -48.383  0.0000E+00  0.0000E+00  0.0000E+00
    -48.091  0.0000E+00  0.0000E+00  0.0000E+00
    -47.799  0.0000E+00  0.0000E+00  0.0000E+00
    -47.508  0.0000E+00  0.0000E+00  0.0000E+00
    -47.216  0.0000E+00  0.0000E+00  0.0000E+00
    -46.924  0.0000E+00  0.0000E+00  0.0000E+00
    -46.633  0.0000E+00  0.0000E+00  0.0000E+00
    -46.341  0.0000E+00  0.0000E+00  0.0000E+00
    -46.049  0.0000E+00  0.0000E+00  0.0000E+00
    -45.758  0.0000E+00  0.0000E+00  0.0000E+00
    -45.466  0.0000E+00  0.0000E+00  0.0000E+00
    -45.174  0.0000E+00  0.0000E+00  0.0000E+00
    -44.883  0.0000E+00  0.0000E+00  0.0000E+00
    -44.591  0.0000E+00  0.0000E+00  0.0000E+00
    -44.300  0.0000E+00  0.0000E+00  0.0000E+00
    -44.008  0.0000E+00  0.0000E+00  0.0000E+00
    -43.716  0.0000E+00  0.0000E+00  0.0000E+00
    -43.425  0.0000E+00  0.0000E+00  0.0000E+00
    -43.133  0.0000E+00  0.0000E+00  0.0000E+00
    -42.841  0.0000E+00  0.0000E+00  0.0000E+00
    -42.550  0.0000E+00  0.0000E+00  0.0000E+00
    -42.258  0.0000E+00  0.0000E+00  0.0000E+00
    -41.966  0.0000E+00  0.0000E+00  0.0000E+00
    -41.675  0.0000E+00  0.0000E+00  0.0000E+00
    -41.383  0.0000E+00  0.0000E+00  0.0000E+00
    -41.091  0.0000E+00  0.0000E+00  0.0000E+00
    -40.800  0.0000E+00  0.0000E+00  0.0000E+00
    -40.508  0.0000E+00  0.0000E+00  0.0000E+00
    -40.217  0.0000E+00  0.0000E+00  0.0000E+00
    -39.925  0.0000E+00  0.0000E+00  0.0000E+00
    -39.633  0.0000E+00  0.0000E+00  0.0000E+00
    -39.342  0.0000E+00  0.0000E+00  0.0000E+00
    -39.050  0.0000E+00  0.0000E+00  0.0000E+00
    -38.758  0.0000E+00  0.0000E+00  0.0000E+00
    -38.467  0.0000E+00  0.0000E+00  0.0000E+00
    -38.175  0.0000E+00  0.0000E+00  0.0000E+00
    -37.883  0.0000E+00  0.0000E+00  0.0000E+00
    -37.592  0.0000E+00  0.0000E+00  0.0000E+00
    -37.300  0.0000E+00  0.0000E+00  0.0000E+00
    -37.008  0.0000E+00  0.0000E+00  0.0000E+00
    -36.717  0.0000E+00  0.0000E+00  0.0000E+00
    -36.425  0.0000E+00  0.0000E+00  0.0000E+00
    -36.133  0.0000E+00  0.0000E+00  0.0000E+00
    -35.842  0.0000E+00  0.0000E+00  0.0000E+00
    -35.550  0.0000E+00  0.0000E+00  0.0000E+00
    -35.259  0.0000E+00  0.0000E+00  0.0000E+00
    -34.967  0.0000E+00  0.0000E+00  0.0000E+00
    -34.675  0.0000E+00  0.0000E+00  0.0000E+00
    -34.384  0.0000E+00  0.0000E+00  0.0000E+00
    -34.092  0.0000E+00  0.0000E+00  0.0000E+00
    -33.800  0.0000E+00  0.0000E+00  0.0000E+00
    -33.509  0.0000E+00  0.0000E+00  0.0000E+00
    -33.217  0.0000E+00  0.0000E+00  0.0000E+00
    -32.925  0.0000E+00  0.0000E+00  0.0000E+00
    -32.634  0.0000E+00  0.0000E+00  0.0000E+00
    -32.342  0.0000E+00  0.0000E+00  0.0000E+00
    -32.050  0.0000E+00  0.0000E+00  0.0000E+00
    -31.759  0.0000E+00  0.0000E+00  0.0000E+00
    -31.467  0.0000E+00  0.0000E+00  0.0000E+00
    -31.176  0.0000E+00  0.0000E+00  0.0000E+00
    -30.884  0.0000E+00  0.0000E+00  0.0000E+00
    -30.592  0.0000E+00  0.0000E+00  0.0000E+00
    -30.301  0.0000E+00  0.0000E+00  0.0000E+00
    -30.009  0.0000E+00  0.0000E+00  0.0000E+00
    -29.717  0.0000E+00  0.0000E+00  0.0000E+00
    -29.426  0.0000E+00  0.0000E+00  0.0000E+00
    -29.134  0.0000E+00  0.0000E+00  0.0000E+00
    -28.842  0.0000E+00  0.0000E+00  0.0000E+00
    -28.551  0.0000E+00  0.0000E+00  0.0000E+00
    -28.259  0.0000E+00  0.0000E+00  0.0000E+00
    -27.967  0.0000E+00  0.0000E+00  0.0000E+00
    -27.676  0.0000E+00  0.0000E+00  0.0000E+00
    -27.384  0.0000E+00  0.0000E+00  0.0000E+00
    -27.093  0.0000E+00  0.0000E+00  0.0000E+00
    -26.801  0.0000E+00  0.0000E+00  0.0000E+00
    -26.509  0.0000E+00  0.0000E+00  0.0000E+00
    -26.218  0.0000E+00  0.0000E+00  0.0000E+00
    -25.926  0.0000E+00  0.0000E+00  0.0000E+00
    -25.634  0.0000E+00  0.0000E+00  0.0000E+00
    -25.343  0.0000E+00  0.0000E+00  0.0000E+00
    -25.051  0.0000E+00  0.0000E+00  0.0000E+00
    -24.759  0.0000E+00  0.0000E+00  0.0000E+00
    -24.468  0.0000E+00  0.0000E+00  0.0000E+00
    -24.176  0.0000E+00  0.0000E+00  0.0000E+00
    -23.884  0.0000E+00  0.0000E+00  0.0000E+00
    -23.593  0.0000E+00  0.0000E+00  0.0000E+00
    -23.301  0.0000E+00  0.0000E+00  0.0000E+00
    -23.010  0.0000E+00  0.0000E+00  0.0000E+00
    -22.718  0.0000E+00  0.0000E+00  0.0000E+00
    -22.426  0.0000E+00  0.0000E+00  0.0000E+00
    -22.135  0.0000E+00  0.0000E+00  0.0000E+00
    -21.843  0.0000E+00  0.0000E+00  0.0000E+00
    -21.551  0.0000E+00  0.0000E+00  0.0000E+00
    -21.260  0.0000E+00  0.0000E+00  0.0000E+00
    -20.968  0.0000E+00  0.0000E+00  0.0000E+00
    -20.676  0.0000E+00  0.0000E+00  0.0000E+00
    -20.385  0.0000E+00  0.0000E+00  0.0000E+00
    -20.093  0.0000E+00  0.0000E+00  0.0000E+00
    -19.801  0.0000E+00  0.0000E+00  0.0000E+00
    -19.510  0.0000E+00  0.0000E+00  0.0000E+00
    -19.218  0.0000E+00  0.0000E+00  0.0000E+00
    -18.927  0.0000E+00  0.0000E+00  0.0000E+00
    -18.635  0.0000E+00  0.0000E+00  0.0000E+00
    -18.343  0.0000E+00  0.0000E+00  0.0000E+00
    -18.052  0.0000E+00  0.0000E+00  0.0000E+00
    -17.760  0.0000E+00  0.0000E+00  0.0000E+00
    -17.468  0.0000E+00  0.0000E+00  0.0000E+00
    -17.177  0.0000E+00  0.0000E+00  0.0000E+00
    -16.885  0.0000E+00  0.0000E+00  0.0000E+00
    -16.593  0.0000E+00  0.0000E+00  0.0000E+00
    -16.302  0.0000E+00  0.0000E+00  0.0000E+00
    -16.010  0.0000E+00  0.0000E+00  0.0000E+00
    -15.718  0.0000E+00  0.0000E+00  0.0000E+00
    -15.427  0.0000E+00  0.0000E+00  0.0000E+00
    -15.135  0.0000E+00  0.0000E+00  0.0000E+00
    -14.844  0.0000E+00  0.0000E+00  0.0000E+00
    -14.552  0.0000E+00  0.0000E+00  0.0000E+00
    -14.260  0.0000E+00  0.0000E+00  0.0000E+00
    -13.969  0.0000E+00  0.0000E+00  0.0000E+00
    -13.677  0.0000E+00  0.0000E+00  0.0000E+00
    -13.385  0.0000E+00  0.0000E+00  0.0000E+00
    -13.094  0.0000E+00  0.0000E+00  0.0000E+00
    -12.802  0.6141E-14  0.1174E-14  0.1338E-15
    -12.510  0.1202E-06  0.2395E-07  0.3404E-08
    -12.219  0.9725E-05  0.2172E-05  0.4943E-06
    -11.927  0.2336E-05  0.6827E-06  0.3269E-06
    -11.635  0.1272E-07  0.5384E-08  0.4820E-08
    -11.344  0.2877E-14  0.1211E-14  0.1586E-14
    -11.052  0.0000E+00  0.0000E+00  0.0000E+00
    -10.761  0.3634E-17  0.3198E-18  0.3203E-20
    -10.469  0.2065E-06  0.1818E-07  0.1821E-09
    -10.177  0.1713E-02  0.1518E-03  0.1913E-05
     -9.886  0.1468E-01  0.1557E-02  0.1231E-03
     -9.594  0.5420E-02  0.7593E-03  0.1651E-03
     -9.302  0.1814E-01  0.2826E-02  0.7838E-03
     -9.011  0.3197E-02  0.6269E-03  0.2425E-03
     -8.719  0.1953E-01  0.3263E-02  0.1818E-02
     -8.427  0.3734E-01  0.3682E-02  0.3393E-02
     -8.136  0.3780E-01  0.5354E-02  0.4256E-02
     -7.844  0.2176E-01  0.3004E-02  0.2366E-02
     -7.552  0.4815E-01  0.1055E-01  0.1368E-01
     -7.261  0.3618E-01  0.8543E-02  0.1032E-01
     -6.969  0.2846E-01  0.4616E-02  0.1532E-01
     -6.678  0.7993E-01  0.1467E-01  0.5063E-01
     -6.386  0.4841E-01  0.1559E-01  0.7046E-01
     -6.094  0.6713E-01  0.1847E-01  0.1229E+00
     -5.803  0.9542E-01  0.2783E-01  0.2714E+00
     -5.511  0.7189E-01  0.2906E-01  0.4051E+00
     -5.219  0.8001E-01  0.2785E-01  0.9034E+00
     -4.928  0.2333E-01  0.2450E-01  0.1063E+01
     -4.636  0.1348E-01  0.2435E-01  0.1425E+01
     -4.344  0.1862E-01  0.1991E-01  0.1499E+01
     -4.053  0.2318E-01  0.2889E-01  0.2490E+01
     -3.761  0.3829E-01  0.5496E-01  0.4451E+01
     -3.469  0.1978E-01  0.4300E-01  0.2849E+01
     -3.178  0.3113E-01  0.4857E-01  0.3539E+01
     -2.886  0.1787E-01  0.2649E-01  0.3689E+01
     -2.594  0.2501E-01  0.2214E-01  0.5027E+01
     -2.303  0.1588E-01  0.1486E-01  0.1541E+01
     -2.011  0.3271E-01  0.1765E-01  0.4112E+00
     -1.720  0.2845E-01  0.2676E-01  0.2338E+00
     -1.428  0.1481E-01  0.2367E-01  0.1008E+00
     -1.136  0.4274E-01  0.4036E-01  0.1665E+00
     -0.845  0.2707E-01  0.4871E-01  0.1673E+00
     -0.553  0.1727E-01  0.4483E-01  0.1322E+00
     -0.261  0.3638E-01  0.3854E-01  0.9443E-01
      0.030  0.3462E-01  0.5148E-01  0.1191E+00
      0.322  0.1307E-01  0.5955E-01  0.4986E-01
      0.614  0.2290E-01  0.6840E-01  0.1142E+00
      0.905  0.2188E-01  0.6491E-01  0.8832E-01
      1.197  0.6125E-02  0.3216E-01  0.2497E-01
      1.489  0.2325E-01  0.8163E-01  0.8037E-01
      1.780  0.1616E-01  0.7718E-01  0.9771E-01
      2.072  0.1152E-01  0.2934E-01  0.3928E-01
      2.363  0.8199E-02  0.4009E-01  0.2356E-01
      2.655  0.6455E-02  0.3782E-01  0.4361E-01
      2.947  0.4744E-02  0.3595E-01  0.4062E-01
      3.238  0.5080E-02  0.3007E-01  0.3032E-01
      3.530  0.2479E-01  0.3049E-01  0.4269E-01
      3.822  0.2492E-01  0.4606E-01  0.6250E-01
      4.113  0.2471E-01  0.2551E-01  0.3345E-01
      4.405  0.4320E-01  0.2919E-01  0.3907E-01
      4.697  0.1283E+00  0.5824E-01  0.6966E-01
      4.988  0.4934E-01  0.3238E-01  0.7672E-01
      5.280  0.3701E-01  0.4471E-01  0.7931E-01
      5.572  0.7729E-01  0.7832E-01  0.8110E-01
      5.863  0.6735E-01  0.8953E-01  0.5759E-01
      6.155  0.4322E-01  0.6213E-01  0.4993E-01
      6.446  0.2330E-01  0.5209E-01  0.5861E-01
      6.738  0.5456E-01  0.6666E-01  0.5634E-01
      7.030  0.3097E-01  0.6783E-01  0.4301E-01
      7.321  0.4313E-01  0.6030E-01  0.3994E-01
      7.613  0.6055E-01  0.6767E-01  0.5950E-01
      7.905  0.1392E-01  0.2192E-01  0.2543E-01
      8.196  0.1309E-04  0.2016E-04  0.5224E-04
      8.488  0.1268E-13  0.1980E-13  0.7387E-13
      8.780  0.0000E+00  0.0000E+00  0.0000E+00
      9.071  0.0000E+00  0.0000E+00  0.0000E+00
      9.363  0.0000E+00  0.0000E+00  0.0000E+00
      9.655  0.0000E+00  0.0000E+00  0.0000E+00
      9.946  0.0000E+00  0.0000E+00  0.0000E+00
     10.238  0.0000E+00  0.0000E+00  0.0000E+00
     10.529  0.0000E+00  0.0000E+00  0.0000E+00
     10.821  0.0000E+00  0.0000E+00  0.0000E+00
     11.113  0.0000E+00  0.0000E+00  0.0000E+00
     11.404  0.0000E+00  0.0000E+00  0.0000E+00
     11.696  0.0000E+00  0.0000E+00  0.0000E+00
     11.69603406    -75.79700755  301     -1.02936711      1.00000000
    -75.797  0.0000E+00  0.0000E+00  0.0000E+00
    -75.505  0.0000E+00  0.0000E+00  0.0000E+00
    -75.214  0.0000E+00  0.0000E+00  0.0000E+00
    -74.922  0.0000E+00  0.0000E+00  0.0000E+00
    -74.630  0.0000E+00  0.0000E+00  0.0000E+00
    -74.339  0.0000E+00  0.0000E+00  0.0000E+00
    -74.047  0.0000E+00  0.0000E+00  0.0000E+00
    -73.756  0.0000E+00  0.0000E+00  0.0000E+00
    -73.464  0.0000E+00  0.0000E+00  0.0000E+00
    -73.172  0.0000E+00  0.0000E+00  0.0000E+00
    -72.881  0.0000E+00  0.0000E+00  0.0000E+00
    -72.589  0.0000E+00  0.0000E+00  0.0000E+00
    -72.297  0.2834E-21  0.1051E-18  0.4617E-19
    -72.006  0.3342E-12  0.1092E-09  0.4140E-10
    -71.714  0.1656E-09  0.5991E-07  0.1833E-07
    -71.422  0.7447E-09  0.1120E-05  0.3110E-07
    -71.131  0.5254E-05  0.2780E-01  0.9209E-05
    -70.839  0.2206E-04  0.8441E+01  0.4640E-04
    -70.547  0.1889E-04  0.1203E+02  0.2559E-04
    -70.256  0.1351E-07  0.7388E-02  0.4290E-08
    -69.964  0.2665E-17  0.1322E-11  0.4405E-17
    -69.672  0.0000E+00  0.0000E+00  0.0000E+00
    -69.381  0.0000E+00  0.0000E+00  0.0000E+00
    -69.089  0.0000E+00  0.0000E+00  0.0000E+00
    -68.798  0.0000E+00  0.0000E+00  0.0000E+00
    -68.506  0.0000E+00  0.0000E+00  0.0000E+00
    -68.214  0.0000E+00  0.0000E+00  0.0000E+00
    -67.923  0.0000E+00  0.0000E+00  0.0000E+00
    -67.631  0.0000E+00  0.0000E+00  0.0000E+00
    -67.339  0.0000E+00  0.0000E+00  0.0000E+00
    -67.048  0.0000E+00  0.0000E+00  0.0000E+00
    -66.756  0.0000E+00  0.0000E+00  0.0000E+00
    -66.464  0.0000E+00  0.0000E+00  0.0000E+00
    -66.173  0.0000E+00  0.0000E+00  0.0000E+00
    -65.881  0.0000E+00  0.0000E+00  0.0000E+00
    -65.589  0.0000E+00  0.0000E+00  0.0000E+00
    -65.298  0.0000E+00  0.0000E+00  0.0000E+00
    -65.006  0.0000E+00  0.0000E+00  0.0000E+00
    -64.715  0.0000E+00  0.0000E+00  0.0000E+00
    -64.423  0.0000E+00  0.0000E+00  0.0000E+00
    -64.131  0.0000E+00  0.0000E+00  0.0000E+00
    -63.840  0.0000E+00  0.0000E+00  0.0000E+00
    -63.548  0.0000E+00  0.0000E+00  0.0000E+00
    -63.256  0.0000E+00  0.0000E+00  0.0000E+00
    -62.965  0.0000E+00  0.0000E+00  0.0000E+00
    -62.673  0.0000E+00  0.0000E+00  0.0000E+00
    -62.381  0.0000E+00  0.0000E+00  0.0000E+00
    -62.090  0.0000E+00  0.0000E+00  0.0000E+00
    -61.798  0.0000E+00  0.0000E+00  0.0000E+00
    -61.506  0.0000E+00  0.0000E+00  0.0000E+00
    -61.215  0.0000E+00  0.0000E+00  0.0000E+00
    -60.923  0.0000E+00  0.0000E+00  0.0000E+00
    -60.632  0.0000E+00  0.0000E+00  0.0000E+00
    -60.340  0.0000E+00  0.0000E+00  0.0000E+00
    -60.048  0.0000E+00  0.0000E+00  0.0000E+00
    -59.757  0.0000E+00  0.0000E+00  0.0000E+00
    -59.465  0.0000E+00  0.0000E+00  0.0000E+00
    -59.173  0.0000E+00  0.0000E+00  0.0000E+00
    -58.882  0.0000E+00  0.0000E+00  0.0000E+00
    -58.590  0.0000E+00  0.0000E+00  0.0000E+00
    -58.298  0.0000E+00  0.0000E+00  0.0000E+00
    -58.007  0.0000E+00  0.0000E+00  0.0000E+00
    -57.715  0.0000E+00  0.0000E+00  0.0000E+00
    -57.423  0.0000E+00  0.0000E+00  0.0000E+00
    -57.132  0.0000E+00  0.0000E+00  0.0000E+00
    -56.840  0.0000E+00  0.0000E+00  0.0000E+00
    -56.549  0.0000E+00  0.0000E+00  0.0000E+00
    -56.257  0.0000E+00  0.0000E+00  0.0000E+00
    -55.965  0.0000E+00  0.0000E+00  0.0000E+00
    -55.674  0.0000E+00  0.0000E+00  0.0000E+00
    -55.382  0.0000E+00  0.0000E+00  0.0000E+00
    -55.090  0.0000E+00  0.0000E+00  0.0000E+00
    -54.799  0.0000E+00  0.0000E+00  0.0000E+00
    -54.507  0.0000E+00  0.0000E+00  0.0000E+00
    -54.215  0.0000E+00  0.0000E+00  0.0000E+00
    -53.924  0.0000E+00  0.0000E+00  0.0000E+00
    -53.632  0.0000E+00  0.0000E+00  0.0000E+00
    -53.340  0.0000E+00  0.0000E+00  0.0000E+00
    -53.049  0.0000E+00  0.0000E+00  0.0000E+00
    -52.757  0.0000E+00  0.0000E+00  0.0000E+00
    -52.466  0.0000E+00  0.0000E+00  0.0000E+00
    -52.174  0.0000E+00  0.0000E+00  0.0000E+00
    -51.882  0.0000E+00  0.0000E+00  0.0000E+00
    -51.591  0.0000E+00  0.0000E+00  0.0000E+00
    -51.299  0.0000E+00  0.0000E+00  0.0000E+00
    -51.007  0.0000E+00  0.0000E+00  0.0000E+00
    -50.716  0.0000E+00  0.0000E+00  0.0000E+00
    -50.424  0.0000E+00  0.0000E+00  0.0000E+00
    -50.132  0.0000E+00  0.0000E+00  0.0000E+00
    -49.841  0.0000E+00  0.0000E+00  0.0000E+00