   38   38  150    1
  0.3386168E+02  0.7529542E-09  0.7529542E-09  0.2620742E-08  0.5000000E-15
  1.000000000000000E-004
  CAR 
 unknown system                          
    620      4    372
 
  0.0000000E+00  0.0000000E+00  0.0000000E+00  0.6250000E-01
    1      -71.819602
    2      -71.798785
    3      -71.798783
    4      -71.793133
    5      -71.775101
    6      -71.775052
    7      -71.512953
    8      -71.512933
    9      -71.510624
   10      -71.477220
   11      -71.471578
   12      -71.471571
   13      -71.466182
   14      -71.466181
   15      -71.452279
   16      -71.400329
   17      -71.388212
   18      -71.388165
   19      -71.152669
   20      -71.149120
   21      -71.149078
   22      -71.147873
   23      -71.143260
   24      -71.143223
   25      -71.141871
   26      -71.141867
   27      -71.135780
   28      -71.135748
   29      -71.133088
   30      -71.117688
   31      -71.115416
   32      -71.115371
   33      -71.113642
   34      -71.113599
   35      -71.107537
   36      -71.091007
   37      -71.089133
   38      -71.088316
   39      -71.086658
   40      -71.086641
   41      -71.086620
   42      -71.081339
   43      -71.081313
   44      -71.080704
   45      -71.080669
   46      -71.077895
   47      -71.075630
   48      -71.069487
   49      -71.069467
   50      -71.065992
   51      -71.065950
   52      -71.056829
   53      -71.056775
   54      -71.051789
   55      -71.040224
   56      -71.029621
   57      -71.029589
   58      -71.027601
   59      -71.023661
   60      -71.023656
   61      -71.018893
   62      -71.007956
   63      -71.007899
   64      -71.006003
   65      -70.986077
   66      -70.983671
   67      -70.983669
   68      -70.978193
   69      -70.978187
   70      -70.962332
   71      -70.956860
   72      -70.956840
   73      -70.882965
   74      -70.882947
   75      -70.880669
   76      -70.880657
   77      -70.878653
   78      -70.874665
   79      -70.873493
   80      -70.873487
   81      -70.871809
   82      -70.863870
   83      -70.829882
   84      -70.827231
   85      -70.826498
   86      -70.826469
   87      -70.821308
   88      -70.821299
   89      -70.820372
   90      -70.817557
   91      -70.817526
   92      -70.806137
   93      -70.802575
   94      -70.802520
   95      -70.776716
   96      -70.773467
   97      -70.773439
   98      -70.770447
   99      -70.770423
  100      -70.769392
  101      -70.767175
  102      -70.767174
  103      -70.766639
  104      -70.763683
  105      -70.763646
  106      -70.706003
  107      -70.701541
  108      -70.701522
  109      -12.393131
  110      -11.980681
  111      -10.201688
  112       -8.709002
  113       -7.305513
  114       -7.305485
  115       -7.218580
  116       -7.200545
  117       -7.200533
  118       -7.133298
  119       -7.038806
  120       -6.726539
  121       -6.726510
  122       -6.549915
  123       -6.549901
  124       -6.452602
  125       -6.353416
  126       -6.323858
  127       -6.014883
  128       -6.014860
  129       -5.920771
  130       -5.920758
  131       -5.796934
  132       -5.716273
  133       -5.536471
  134       -5.536458
  135       -5.445200
  136       -5.445193
  137       -5.441358
  138       -5.426856
  139       -5.347511
  140       -5.347493
  141       -5.305119
  142       -5.300823
  143       -5.300817
  144       -5.295360
  145       -5.295347
  146       -5.256448
  147       -5.210167
  148       -5.155962
  149       -5.155951
  150       -5.148446
  151       -5.133839
  152       -5.117420
  153       -5.116873
  154       -5.116870
  155       -5.067504
  156       -5.067504
  157       -5.019431
  158       -5.019431
  159       -4.938458
  160       -4.938454
  161       -4.895780
  162       -4.895776
  163       -4.877728
  164       -4.851123
  165       -4.851119
  166       -4.833791
  167       -4.769950
  168       -4.769949
  169       -4.674176
  170       -4.584032
  171       -4.584026
  172       -4.570742
  173       -4.542749
  174       -4.542734
  175       -4.458398
  176       -4.458398
  177       -4.457844
  178       -4.446841
  179       -4.421939
  180       -4.421933
  181       -4.373422
  182       -4.327480
  183       -4.327475
  184       -4.314588
  185       -4.281397
  186       -4.257761
  187       -4.252768
  188       -4.252757
  189       -4.251095
  190       -4.182339
  191       -4.157478
  192       -4.157473
  193       -4.153930
  194       -4.127941
  195       -4.127937
  196       -4.108555
  197       -4.108554
  198       -4.058761
  199       -4.049746
  200       -4.049742
  201       -3.984794
  202       -3.960353
  203       -3.960350
  204       -3.934490
  205       -3.916869
  206       -3.916867
  207       -3.915381
  208       -3.904994
  209       -3.904992
  210       -3.886172
  211       -3.886165
  212       -3.863890
  213       -3.862710
  214       -3.855238
  215       -3.855237
  216       -3.854557
  217       -3.817531
  218       -3.817524
  219       -3.792141
  220       -3.792141
  221       -3.769750
  222       -3.734948
  223       -3.698786
  224       -3.698779
  225       -3.645736
  226       -3.636264
  227       -3.636256
  228       -3.605921
  229       -3.564048
  230       -3.502966
  231       -3.446607
  232       -3.446602
  233       -3.434270
  234       -3.434258
  235       -3.427050
  236       -3.400360
  237       -3.400357
  238       -3.390998
  239       -3.388628
  240       -3.365184
  241       -3.365184
  242       -3.306589
  243       -3.306587
  244       -3.284613
  245       -3.276215
  246       -3.276208
  247       -3.233290
  248       -3.233286
  249       -3.224036
  250       -3.224025
  251       -3.205490
  252       -3.176251
  253       -3.176247
  254       -3.128169
  255       -3.128167
  256       -3.115387
  257       -3.100999
  258       -3.100991
  259       -3.042103
  260       -3.042100
  261       -3.021858
  262       -2.993786
  263       -2.974926
  264       -2.974920
  265       -2.959767
  266       -2.952804
  267       -2.952803
  268       -2.946670
  269       -2.946661
  270       -2.924875
  271       -2.909004
  272       -2.893676
  273       -2.893662
  274       -2.891357
  275       -2.891349
  276       -2.869219
  277       -2.869207
  278       -2.859679
  279       -2.843670
  280       -2.843666
  281       -2.843613
  282       -2.827566
  283       -2.827555
  284       -2.805750
  285       -2.770711
  286       -2.770708
  287       -2.767138
  288       -2.767129
  289       -2.763880
  290       -2.758805
  291       -2.758802
  292       -2.754941
  293       -2.733140
  294       -2.731969
  295       -2.731967
  296       -2.730526
  297       -2.674822
  298       -2.674807
  299       -2.641369
  300       -2.641363
  301       -2.637606
  302       -2.619847
  303       -2.607462
  304       -2.607453
  305       -2.557578
  306       -1.936331
  307       -1.936326
  308       -1.926320
  309       -1.736454
  310       -1.736450
  311       -1.513673
  312       -1.255241
  313       -0.438948
  314       -0.438946
  315       -0.186650
  316       -0.186643
  317       -0.173278
  318        0.589135
  319        0.728786
  320        1.257279
  321        1.257290
  322        1.955487
  323        2.149862
  324        2.149868
  325        2.554232
  326        2.554232
  327        2.732852
  328        2.817860
  329        2.817860
  330        3.198506
  331        3.308248
  332        3.392748
  333        3.537971
  334        3.537973
  335        3.597535
  336        3.638386
  337        4.092915
  338        4.092932
  339        4.128319
  340        4.236186
  341        4.455363
  342        4.455367
  343        4.481704
  344        4.641846
  345        4.641864
  346        4.953005
  347        5.250271
  348        5.546172
  349        5.546179
  350        5.790999
  351        5.969697
  352        6.024542
  353        6.024560
  354        6.086870
  355        6.173286
  356        6.173292
  357        6.347429
  358        6.730787
  359        6.730798
  360        6.766725
  361        6.937990
  362        6.937993
  363        6.950405
  364        7.143740
  365        7.143741
  366        7.281794
  367        7.281825
  368        7.303335
  369        7.303354
  370        7.351934
  371        7.539330
  372        7.573025
 
  0.2500000E+00  0.5551115E-16  0.0000000E+00  0.3750000E+00
    1      -71.819717
    2      -71.798633
    3      -71.798610
    4      -71.793959
    5      -71.774958
    6      -71.773706
    7      -71.512852
    8      -71.512811
    9      -71.511163
   10      -71.477261
   11      -71.471218
   12      -71.468628
   13      -71.465921
   14      -71.465856
   15      -71.454144
   16      -71.399381
   17      -71.388990
   18      -71.388154
   19      -71.164758
   20      -71.157012
   21      -71.155895
   22      -71.153006
   23      -71.151395
   24      -71.139112
   25      -71.132385
   26      -71.132032
   27      -71.124897
   28      -71.123799
   29      -71.121087
   30      -71.118223
   31      -71.115901
   32      -71.115744
   33      -71.112724
   34      -71.112075
   35      -71.108774
   36      -71.094878
   37      -71.091758
   38      -71.091616
   39      -71.088741
   40      -71.087826
   41      -71.087578
   42      -71.082939
   43      -71.081698
   44      -71.081676
   45      -71.078668
   46      -71.077691
   47      -71.075808
   48      -71.071281
   49      -71.070778
   50      -71.070311
   51      -71.067151
   52      -71.056971
   53      -71.049289
   54      -71.048223
   55      -71.043806
   56      -71.029068
   57      -71.028980
   58      -71.027596
   59      -71.022104
   60      -71.020830
   61      -71.012763
   62      -71.009300
   63      -71.006925
   64      -71.004873
   65      -70.985792
   66      -70.983790
   67      -70.983594
   68      -70.980731
   69      -70.977730
   70      -70.962841
   71      -70.960354
   72      -70.957365
   73      -70.896739
   74      -70.890875
   75      -70.887705
   76      -70.885788
   77      -70.881034
   78      -70.870417
   79      -70.863904
   80      -70.860347
   81      -70.855753
   82      -70.851133
   83      -70.833163
   84      -70.830041
   85      -70.826295
   86      -70.826083
   87      -70.825676
   88      -70.821823
   89      -70.819837
   90      -70.818849
   91      -70.814586
   92      -70.808468
   93      -70.806135
   94      -70.803628
   95      -70.775778
   96      -70.773707
   97      -70.773296
   98      -70.771679
   99      -70.770503
  100      -70.768748
  101      -70.767828
  102      -70.766748
  103      -70.765452
  104      -70.763857
  105      -70.763793
  106      -70.705803
  107      -70.701492
  108      -70.701467
  109      -12.335521
  110      -12.028812
  111       -9.985554
  112       -8.553092
  113       -8.339710
  114       -7.684499
  115       -7.608884
  116       -7.290394
  117       -6.910248
  118       -6.906849
  119       -6.649872
  120       -6.624304
  121       -6.581434
  122       -6.390228
  123       -6.302194
  124       -6.292447
  125       -6.250392
  126       -6.160246
  127       -6.030921
  128       -5.994203
  129       -5.921695
  130       -5.853666
  131       -5.777788
  132       -5.696531
  133       -5.608574
  134       -5.592798
  135       -5.523862
  136       -5.492371
  137       -5.454880
  138       -5.449521
  139       -5.435054
  140       -5.416883
  141       -5.397202
  142       -5.380979
  143       -5.379892
  144       -5.343877
  145       -5.319285
  146       -5.285596
  147       -5.285222
  148       -5.246793
  149       -5.184698
  150       -5.172836
  151       -5.168827
  152       -5.147931
  153       -5.122252
  154       -5.090269
  155       -5.038853
  156       -5.017127
  157       -5.007163
  158       -4.995841
  159       -4.940718
  160       -4.916816
  161       -4.896202
  162       -4.860832
  163       -4.856354
  164       -4.823420
  165       -4.793443
  166       -4.766674
  167       -4.764872
  168       -4.719195
  169       -4.690749
  170       -4.642734
  171       -4.641235
  172       -4.598784
  173       -4.554364
  174       -4.543205
  175       -4.524355
  176       -4.520711
  177       -4.489407
  178       -4.478087
  179       -4.460372
  180       -4.382685
  181       -4.364141
  182       -4.357232
  183       -4.339928
  184       -4.308731
  185       -4.293098
  186       -4.282315
  187       -4.263965
  188       -4.238290
  189       -4.205798
  190       -4.199970
  191       -4.188690
  192       -4.165873
  193       -4.155644
  194       -4.147620
  195       -4.123680
  196       -4.119840
  197       -4.099468
  198       -4.083796
  199       -4.066167
  200       -4.037409
  201       -4.033103
  202       -4.012581
  203       -4.004738
  204       -4.001701
  205       -3.990198
  206       -3.972584
  207       -3.971840
  208       -3.948349
  209       -3.923295
  210       -3.919918
  211       -3.905491
  212       -3.901984
  213       -3.879306
  214       -3.868012
  215       -3.856142
  216       -3.840891
  217       -3.829869
  218       -3.802466
  219       -3.778743
  220       -3.768319
  221       -3.759226
  222       -3.752962
  223       -3.748796
  224       -3.739748
  225       -3.735601
  226       -3.701920
  227       -3.693646
  228       -3.649803
  229       -3.624778
  230       -3.615901
  231       -3.584563
  232       -3.580490
  233       -3.530133
  234       -3.496554
  235       -3.473246
  236       -3.442539
  237       -3.421145
  238       -3.412663
  239       -3.404285
  240       -3.379213
  241       -3.370750
  242       -3.339442
  243       -3.338480
  244       -3.315183
  245       -3.313289
  246       -3.283145
  247       -3.266968
  248       -3.256703
  249       -3.242461
  250       -3.222591
  251       -3.209063
  252       -3.197528
  253       -3.183893
  254       -3.178279
  255       -3.147523
  256       -3.145732
  257       -3.136771
  258       -3.125090
  259       -3.093151
  260       -3.045590
  261       -3.042802
  262       -3.030900
  263       -3.004781
  264       -3.000741
  265       -2.985207
  266       -2.974747
  267       -2.962279
  268       -2.948098
  269       -2.929111
  270       -2.915250
  271       -2.893960
  272       -2.887083
  273       -2.870272
  274       -2.857607
  275       -2.852671
  276       -2.834263
  277       -2.821358
  278       -2.804450
  279       -2.786041
  280       -2.783876
  281       -2.764109
  282       -2.750718
  283       -2.741584
  284       -2.720758
  285       -2.716948
  286       -2.707173
  287       -2.703194
  288       -2.687570
  289       -2.681091
  290       -2.670632
  291       -2.658794
  292       -2.651548
  293       -2.643074
  294       -2.629243
  295       -2.625236
  296       -2.622007
  297       -2.608219
  298       -2.588256
  299       -2.481088
  300       -2.463774
  301       -2.368649
  302       -2.356514
  303       -2.207880
  304       -2.106930
  305       -2.018091
  306       -2.005610
  307       -1.868598
  308       -1.601679
  309       -1.405551
  310       -1.245564
  311       -1.157047
  312       -1.023742
  313       -0.619417
  314       -0.590235
  315       -0.218082
  316        0.044503
  317        0.045757
  318        0.514323
  319        0.562047
  320        0.652090
  321        0.851785
  322        1.160051
  323        1.256337
  324        1.561477
  325        1.638935
  326        1.835196
  327        2.204045
  328        2.526168
  329        2.588902
  330        2.676852
  331        3.098712
  332        3.306279
  333        3.310795
  334        3.608876
  335        3.766260
  336        3.803690
  337        3.932110
  338        4.274565
  339        4.447288
  340        4.496681
  341        4.619095
  342        4.629973
  343        4.835266
  344        5.064432
  345        5.125334
  346        5.207635
  347        5.262232
  348        5.347624
  349        5.445783
  350        5.517710
  351        5.750489
  352        5.829880
  353        5.879011
  354        5.936995
  355        6.057623
  356        6.161032
  357        6.246863
  358        6.337005
  359        6.385698
  360        6.542187
  361        6.586246
  362        6.678055
  363        6.697138
  364        6.825071
  365        6.865420
  366        7.129332
  367        7.190548
  368        7.245388
  369        7.405028
  370        7.466396
  371        7.561604
  372        7.562700
 
  0.5000000E+00  0.1110223E-15  0.0000000E+00  0.1875000E+00
    1      -71.820051
    2      -71.798704
    3      -71.798702
    4      -71.794841
    5      -71.775024
    6      -71.772647
    7      -71.512933
    8      -71.512876
    9      -71.512093
   10      -71.477466
   11      -71.471284
   12      -71.466424
   13      -71.465723
   14      -71.463747
   15      -71.457753
   16      -71.398430
   17      -71.390091
   18      -71.388214
   19      -71.171056
   20      -71.159943
   21      -71.159614
   22      -71.157854
   23      -71.155585
   24      -71.136012
   25      -71.129656
   26      -71.126232
   27      -71.120776
   28      -71.117157
   29      -71.116169
   30      -71.116069
   31      -71.113261
   32      -71.111109
   33      -71.107489
   34      -71.107164
   35      -71.105578
   36      -71.104811
   37      -71.095728
   38      -71.092323
   39      -71.091085
   40      -71.089824
   41      -71.089435
   42      -71.088295
   43      -71.083239
   44      -71.082365
   45      -71.082210
   46      -71.078744
   47      -71.073874
   48      -71.073356
   49      -71.071592
   50      -71.070890
   51      -71.070675
   52      -71.058058
   53      -71.047859
   54      -71.044242
   55      -71.039339
   56      -71.028874
   57      -71.028617
   58      -71.027561
   59      -71.023618
   60      -71.021106
   61      -71.011204
   62      -71.008629
   63      -71.003707
   64      -70.999450
   65      -70.986561
   66      -70.985670
   67      -70.983460
   68      -70.983246
   69      -70.977709
   70      -70.965266
   71      -70.963470
   72      -70.958570
   73      -70.902882
   74      -70.894349
   75      -70.892081
   76      -70.889325
   77      -70.885068
   78      -70.864729
   79      -70.858009
   80      -70.845510
   81      -70.844387
   82      -70.840440
   83      -70.839004
   84      -70.831923
   85      -70.828177
   86      -70.826841
   87      -70.826401
   88      -70.825891
   89      -70.823100
   90      -70.819464
   91      -70.818635
   92      -70.810960
   93      -70.806490
   94      -70.806433
   95      -70.774868
   96      -70.774356
   97      -70.773496
   98      -70.773144
   99      -70.770553
  100      -70.768884
  101      -70.767521
  102      -70.766283
  103      -70.764815
  104      -70.763911
  105      -70.763823
  106      -70.705804
  107      -70.701411
  108      -70.701349
  109      -12.245217
  110      -12.109342
  111       -9.392313
  112       -9.308922
  113       -8.145302
  114       -7.895633
  115       -7.838218
  116       -7.736418
  117       -6.972129
  118       -6.755283
  119       -6.609824
  120       -6.409849
  121       -6.211765
  122       -6.187190
  123       -6.093557
  124       -6.084937
  125       -6.004010
  126       -5.959957
  127       -5.933199
  128       -5.912018
  129       -5.890340
  130       -5.877154
  131       -5.837594
  132       -5.812142
  133       -5.757688
  134       -5.744188
  135       -5.691534
  136       -5.637726
  137       -5.614885
  138       -5.562845
  139       -5.559581
  140       -5.538554
  141       -5.481758
  142       -5.419844
  143       -5.386631
  144       -5.334351
  145       -5.328696
  146       -5.286302
  147       -5.280189
  148       -5.272350
  149       -5.236967
  150       -5.210414
  151       -5.185805
  152       -5.169104
  153       -5.119612
  154       -5.090698
  155       -5.059024
  156       -4.986925
  157       -4.952473
  158       -4.935690
  159       -4.916796
  160       -4.909921
  161       -4.898519
  162       -4.858029
  163       -4.853145
  164       -4.819466
  165       -4.801952
  166       -4.763952
  167       -4.691729
  168       -4.673540
  169       -4.658660
  170       -4.647580
  171       -4.626818
  172       -4.612539
  173       -4.604565
  174       -4.552308
  175       -4.515363
  176       -4.494768
  177       -4.491043
  178       -4.466275
  179       -4.429564
  180       -4.422248
  181       -4.399643
  182       -4.378243
  183       -4.349139
  184       -4.345906
  185       -4.326522
  186       -4.310437
  187       -4.308115
  188       -4.273752
  189       -4.268258
  190       -4.267101
  191       -4.255141
  192       -4.228183
  193       -4.206566
  194       -4.198566
  195       -4.166799
  196       -4.165200
  197       -4.145927
  198       -4.104604
  199       -4.083815
  200       -4.081791
  201       -4.054288
  202       -4.033720
  203       -4.018170
  204       -4.012641
  205       -3.989879
  206       -3.983754
  207       -3.975521
  208       -3.957385
  209       -3.949729
  210       -3.946002
  211       -3.916694
  212       -3.904134
  213       -3.892142
  214       -3.875711
  215       -3.857064
  216       -3.853942
  217       -3.850499
  218       -3.817654
  219       -3.806101
  220       -3.789473
  221       -3.777275
  222       -3.769084
  223       -3.747175
  224       -3.746757
  225       -3.704272
  226       -3.674375
  227       -3.670807
  228       -3.618629
  229       -3.606997
  230       -3.597923
  231       -3.566124
  232       -3.561422
  233       -3.552093
  234       -3.535430
  235       -3.519515
  236       -3.505286
  237       -3.490143
  238       -3.471196
  239       -3.465073
  240       -3.452218
  241       -3.443153
  242       -3.406035
  243       -3.395985
  244       -3.348442
  245       -3.324912
  246       -3.315299
  247       -3.285238
  248       -3.267592
  249       -3.254716
  250       -3.254285
  251       -3.233359
  252       -3.221647
  253       -3.206398
  254       -3.200281
  255       -3.178374
  256       -3.150997
  257       -3.129948
  258       -3.102194
  259       -3.086149
  260       -3.068753
  261       -3.058825
  262       -3.031707
  263       -3.029380
  264       -3.018577
  265       -3.017485
  266       -3.000165
  267       -2.981586
  268       -2.966150
  269       -2.929824
  270       -2.918298
  271       -2.904620
  272       -2.878224
  273       -2.870528
  274       -2.850100
  275       -2.820402
  276       -2.815758
  277       -2.801194
  278       -2.788373
  279       -2.765748
  280       -2.747949
  281       -2.742897
  282       -2.729465
  283       -2.711316
  284       -2.698541
  285       -2.696275
  286       -2.677584
  287       -2.675896
  288       -2.663531
  289       -2.643671
  290       -2.634269
  291       -2.632722
  292       -2.623722
  293       -2.568056
  294       -2.555063
  295       -2.545955
  296       -2.539577
  297       -2.512290
  298       -2.438737
  299       -2.367417
  300       -2.293889
  301       -2.071273
  302       -1.927269
  303       -1.800915
  304       -1.520015
  305       -1.476403
  306       -1.397746
  307       -1.199367
  308       -1.115734
  309       -1.014425
  310       -0.981937
  311       -0.818130
  312       -0.796426
  313       -0.713340
  314       -0.567602
  315       -0.399110
  316       -0.100645
  317       -0.087768
  318       -0.073757
  319        0.169223
  320        0.419301
  321        0.473190
  322        0.480158
  323        0.736182
  324        0.800989
  325        1.331350
  326        1.499066
  327        1.600217
  328        1.931310
  329        2.338138
  330        2.586358
  331        2.717196
  332        2.970580
  333        3.311321
  334        3.449940
  335        3.629205
  336        3.938465
  337        4.119796
  338        4.208934
  339        4.281313
  340        4.368390
  341        4.415562
  342        4.545349
  343        4.768863
  344        4.876838
  345        5.041830
  346        5.092909
  347        5.273939
  348        5.367729
  349        5.406509
  350        5.510518
  351        5.658569
  352        5.694075
  353        5.712372
  354        5.808141
  355        5.892479
  356        6.214779
  357        6.356624
  358        6.408011
  359        6.596745
  360        6.699070
  361        6.711474
  362        6.848347
  363        6.856800
  364        6.960644
  365        6.967013
  366        6.989741
  367        7.133417
  368        7.235645
  369        7.309496
  370        7.394050
  371        7.672841
  372        7.719078
 
  0.5000000E+00  0.2500000E+00  0.0000000E+00  0.3750000E+00
    1      -71.820010
    2      -71.799129
    3      -71.798325
    4      -71.794855
    5      -71.775044
    6      -71.772738
    7      -71.513085
    8      -71.512740
    9      -71.512108
   10      -71.477429
   11      -71.471183
   12      -71.466514
   13      -71.465839
   14      -71.463795
   15      -71.457802
   16      -71.398408
   17      -71.390135
   18      -71.388284
   19      -71.168356
   20      -71.166186
   21      -71.162564
   22      -71.152545
   23      -71.147476
   24      -71.144991
   25      -71.133060
   26      -71.121820
   27      -71.118419
   28      -71.117727
   29      -71.116096
   30      -71.114857
   31      -71.111230
   32      -71.110742
   33      -71.109727
   34      -71.108220
   35      -71.107713
   36      -71.099974
   37      -71.099193
   38      -71.094997
   39      -71.094128
   40      -71.089554
   41      -71.088394
   42      -71.086335
   43      -71.083285
   44      -71.081736
   45      -71.079704
   46      -71.077265
   47      -71.076724
   48      -71.073802
   49      -71.071803
   50      -71.071249
   51      -71.070475
   52      -71.054000
   53      -71.049846
   54      -71.047323
   55      -71.038971
   56      -71.028903
   57      -71.028736
   58      -71.027418
   59      -71.025189
   60      -71.017561
   61      -71.008996
   62      -71.008275
   63      -71.006860
   64      -71.000762
   65      -70.985678
   66      -70.985020
   67      -70.983601
   68      -70.982975
   69      -70.979511
   70      -70.963789
   71      -70.963373
   72      -70.959488
   73      -70.900307
   74      -70.898501
   75      -70.895277
   76      -70.883664
   77      -70.878371
   78      -70.877609
   79      -70.849658
   80      -70.845781
   81      -70.844347
   82      -70.840681
   83      -70.838064
   84      -70.835896
   85      -70.830098
   86      -70.828419
   87      -70.826284
   88      -70.826031
   89      -70.820928
   90      -70.819482
   91      -70.814906
   92      -70.813066
   93      -70.806657
   94      -70.806460
   95      -70.774913
   96      -70.774326
   97      -70.773567
   98      -70.772602
   99      -70.771297
  100      -70.768303
  101      -70.767701
  102      -70.766467
  103      -70.764956
  104      -70.764048
  105      -70.763818
  106      -70.705781
  107      -70.701500
  108      -70.701380
  109      -12.247007
  110      -12.107301
  111       -9.561746
  112       -8.781163
  113       -8.703031
  114       -8.193229
  115       -7.593907
  116       -7.462666
  117       -6.769187
  118       -6.701606
  119       -6.651253
  120       -6.359782
  121       -6.336712
  122       -6.216734
  123       -6.170154
  124       -6.072010
  125       -6.047436
  126       -6.009932
  127       -5.993776
  128       -5.939398
  129       -5.919193
  130       -5.864323
  131       -5.819450
  132       -5.794897
  133       -5.754582
  134       -5.704539
  135       -5.660084
  136       -5.610069
  137       -5.574277
  138       -5.549471
  139       -5.509924
  140       -5.482827
  141       -5.477990
  142       -5.459426
  143       -5.431273
  144       -5.417001
  145       -5.394349
  146       -5.354199
  147       -5.307933
  148       -5.300147
  149       -5.224967
  150       -5.206476
  151       -5.135614
  152       -5.119273
  153       -5.098743
  154       -5.060760
  155       -5.043603
  156       -5.013329
  157       -4.999170
  158       -4.939177
  159       -4.931325
  160       -4.882883
  161       -4.859950
  162       -4.855654
  163       -4.823675
  164       -4.814286
  165       -4.773041
  166       -4.722155
  167       -4.696952
  168       -4.686075
  169       -4.676019
  170       -4.656579
  171       -4.638956
  172       -4.623153
  173       -4.563515
  174       -4.537431
  175       -4.531390
  176       -4.522202
  177       -4.499756
  178       -4.480099
  179       -4.463334
  180       -4.449259
  181       -4.411002
  182       -4.395538
  183       -4.366117
  184       -4.359504
  185       -4.332753
  186       -4.300136
  187       -4.286722
  188       -4.274569
  189       -4.247471
  190       -4.239483
  191       -4.223585
  192       -4.219967
  193       -4.199704
  194       -4.180434
  195       -4.168974
  196       -4.145441
  197       -4.124018
  198       -4.100861
  199       -4.079524
  200       -4.069830
  201       -4.048372
  202       -4.031493
  203       -4.026333
  204       -4.019945
  205       -4.011315
  206       -4.003861
  207       -3.970180
  208       -3.954354
  209       -3.948031
  210       -3.939578
  211       -3.928878
  212       -3.921574
  213       -3.896345
  214       -3.880031
  215       -3.877049
  216       -3.851460
  217       -3.844448
  218       -3.837785
  219       -3.824521
  220       -3.812568
  221       -3.790730
  222       -3.774662
  223       -3.744909
  224       -3.730069
  225       -3.697315
  226       -3.686514
  227       -3.639666