 vasp.5.3.5 31Mar14 (build Aug  4 2014 13:16:38) complex                        
  
 executed on     GRPO3GRAPHENEAVX date 2017.07.29  15:51:20
 running on   80 total cores
 distrk:  each k-point on   80 cores,    1 groups
 distr:  one band on NCORES_PER_BAND=  20 cores,    4 groups


--------------------------------------------------------------------------------------------------------


 INCAR:
 POTCAR:    PAW_PBE Cu_pv 06Sep2000               
 POTCAR:    PAW_PBE C 08Apr2002                   

 ----------------------------------------------------------------------------- 
|                                                                             |
|           W    W    AA    RRRRR   N    N  II  N    N   GGGG   !!!           |
|           W    W   A  A   R    R  NN   N  II  NN   N  G    G  !!!           |
|           W    W  A    A  R    R  N N  N  II  N N  N  G       !!!           |
|           W WW W  AAAAAA  RRRRR   N  N N  II  N  N N  G  GGG   !            |
|           WW  WW  A    A  R   R   N   NN  II  N   NN  G    G                |
|           W    W  A    A  R    R  N    N  II  N    N   GGGG   !!!           |
|                                                                             |
|      For optimal performance we recommend to set                            |
|        NCORE= 4 - approx SQRT( number of cores)                             |
|      NCORE specifies how many cores store one orbital (NPAR=cpu/NCORE).     |
|      This setting can  greatly improve the performance of VASP for DFT.     |
|      The default, NPAR=number of cores might be grossly inefficient         |
|      on modern multi-core architectures or massively parallel machines.     |
|      Do your own testing !!!!                                               |
|      Unfortunately you need to use the default for GW and RPA calculations. |
|      (for HF NCORE is supported but not extensively tested yet)             |
|                                                                             |
 ----------------------------------------------------------------------------- 

 POTCAR:    PAW_PBE Cu_pv 06Sep2000               
   VRHFIN =Cu: d10 p1                                                           
   LEXCH  = PE                                                                  
   EATOM  =  4120.1201 eV,  302.8203 Ry                                         
                                                                                
   TITEL  = PAW_PBE Cu_pv 06Sep2000                                             
   LULTRA =        F    use ultrasoft PP ?                                      
   IUNSCR =        1    unscreen: 0-lin 1-nonlin 2-no                           
   RPACOR =    1.500    partial core radius                                     
   POMASS =   63.546; ZVAL   =   17.000    mass and valenz                      
   RCORE  =    2.000    outmost cutoff radius                                   
   RWIGS  =    2.000; RWIGS  =    1.058    wigner-seitz radius (au A)           
   ENMAX  =  368.648; ENMIN  =  276.486 eV                                      
   RCLOC  =    1.304    cutoff for local pot                                    
   LCOR   =        T    correct aug charges                                     
   LPAW   =        T    paw PP                                                  
   EAUG   =  758.233                                                            
   DEXC   =    0.000                                                            
   RMAX   =    2.046    core radius for proj-oper                               
   RAUG   =    1.300    factor for augmentation sphere                          
   RDEP   =    2.025    radius for radial grids                                 
   RDEPT  =    1.558    core radius for aug-charge                              
                                                                                
   Atomic configuration                                                         
    8 entries                                                                   
     n  l   j            E        occ.                                          
     1  0  0.50     -8850.2467   2.0000                                         
     2  0  0.50     -1062.3498   2.0000                                         
     2  1  1.50      -916.8226   6.0000                                         
     3  0  0.50      -114.6929   2.0000                                         
     3  1  1.50       -72.1325   6.0000                                         
     3  2  2.50        -5.0394  10.0000                                         
     4  0  0.50        -4.6097   1.0000                                         
     4  3  2.50        -1.3606   0.0000                                         
   Description                                                                  
     l       E           TYP  RCUT    TYP  RCUT                                 
     1    -72.1324777     23  1.700                                             
     1     -1.3605826     23  1.700                                             
     2     -5.0393776     23  2.000                                             
     2     -6.3999602     23  2.000                                             
     0     -4.6097062     23  1.800                                             
     0     14.1620818     23  1.800                                             
  local pseudopotential read in
  partial core-charges read in
  partial kinetic energy density read in
  atomic valenz-charges read in
  non local Contribution for L=           1  read in
    real space projection operators read in
  non local Contribution for L=           1  read in
    real space projection operators read in
  non local Contribution for L=           2  read in
    real space projection operators read in
  non local Contribution for L=           2  read in
    real space projection operators read in
  non local Contribution for L=           0  read in
    real space projection operators read in
  non local Contribution for L=           0  read in
    real space projection operators read in
    PAW grid and wavefunctions read in
 
   number of l-projection  operators is LMAX  =           6
   number of lm-projection operators is LMMAX =          18
 
 POTCAR:    PAW_PBE C 08Apr2002                   
   VRHFIN =C: s2p2                                                              
   LEXCH  = PE                                                                  
   EATOM  =   147.1560 eV,   10.8157 Ry                                         
                                                                                
   TITEL  = PAW_PBE C 08Apr2002                                                 
   LULTRA =        F    use ultrasoft PP ?                                      
   IUNSCR =        1    unscreen: 0-lin 1-nonlin 2-no                           
   RPACOR =    1.200    partial core radius                                     
   POMASS =   12.011; ZVAL   =    4.000    mass and valenz                      
   RCORE  =    1.500    outmost cutoff radius                                   
   RWIGS  =    1.630; RWIGS  =    0.863    wigner-seitz radius (au A)           
   ENMAX  =  400.000; ENMIN  =  300.000 eV                                      
   ICORE  =        2    local potential                                         
   LCOR   =        T    correct aug charges                                     
   LPAW   =        T    paw PP                                                  
   EAUG   =  644.873                                                            
   DEXC   =    0.000                                                            
   RMAX   =    1.529    core radius for proj-oper                               
   RAUG   =    1.300    factor for augmentation sphere                          
   RDEP   =    1.501    radius for radial grids                                 
   RDEPT  =    1.300    core radius for aug-charge                              
                                                                                
   Atomic configuration                                                         
    4 entries                                                                   
     n  l   j            E        occ.                                          
     1  0  0.50      -273.3789   2.0000                                         
     2  0  0.50       -13.7508   2.0000                                         
     2  1  0.50        -5.2854   2.0000                                         
     3  2  1.50        -5.4423   0.0000                                         
   Description                                                                  
     l       E           TYP  RCUT    TYP  RCUT                                 
     0    -13.7508458     23  1.200                                             
     0     -8.2022199     23  1.200                                             
     1     -5.2854383     23  1.500                                             
     1     34.0145650     23  1.500                                             
     2     -5.4423304      7  1.500                                             
  local pseudopotential read in
  partial core-charges read in
  partial kinetic energy density read in
  atomic valenz-charges read in
  non local Contribution for L=           0  read in
    real space projection operators read in
  non local Contribution for L=           0  read in
    real space projection operators read in
  non local Contribution for L=           1  read in
    real space projection operators read in
  non local Contribution for L=           1  read in
    real space projection operators read in
    PAW grid and wavefunctions read in
 
   number of l-projection  operators is LMAX  =           4
   number of lm-projection operators is LMMAX =           8
 

 ----------------------------------------------------------------------------- 
|                                                                             |
|  ADVICE TO THIS USER RUNNING 'VASP/VAMP'   (HEAR YOUR MASTER'S VOICE ...):  |
|                                                                             |
|      You have a (more or less) 'large supercell' and for larger cells       |
|      it might be more efficient to use real space projection opertators     |
|      So try LREAL= Auto  in the INCAR   file.                               |
|      Mind: At the moment your POTCAR file does not contain real space       |
|       projectors, and has to be modified,  BUT if you                       |
|      want to do an extremely  accurate calculation you might also keep the  |
|      reciprocal projection scheme          (i.e. LREAL=.FALSE.)             |
|                                                                             |
 ----------------------------------------------------------------------------- 

  PAW_PBE Cu_pv 06Sep2000               :
 energy of atom  1       EATOM=-4120.1201
 kinetic energy error for atom=    0.0996 (will be added to EATOM!!)
  PAW_PBE C 08Apr2002                   :
 energy of atom  2       EATOM= -147.1560
 kinetic energy error for atom=    0.0288 (will be added to EATOM!!)
 
 
 POSCAR: test                                    
  positions in cartesian coordinates
  No initial velocities read in
 exchange correlation table for  LEXCH =        8
   RHO(1)=    0.500       N(1)  =     2000
   RHO(2)=  100.500       N(2)  =     4000
 


--------------------------------------------------------------------------------------------------------


 ion  position               nearest neighbor table
   1  0.000  0.000  0.000-  12 2.51  16 2.51   6 2.51   8 2.51   2 2.51   3 2.51   7 2.51   4 2.51
                            10 2.51
   2  0.000  0.333  0.000-   3 2.51   9 2.51  10 2.51  11 2.51  17 2.51   1 2.51   4 2.51   5 2.51
                             8 2.51
   3  0.000  0.667  0.000-   2 2.51   5 2.51  11 2.51  18 2.51   1 2.51   7 2.51   6 2.51   9 2.51
                            12 2.51
   4  0.333  0.000  0.000-   7 2.51   9 2.51  10 2.51  13 2.51  15 2.51   6 2.51   2 2.51   5 2.51
                             1 2.51
   5  0.333  0.333  0.000-   6 2.51   8 2.51  14 2.51   3 2.51   7 2.51  13 2.51  11 2.51   4 2.51
                             2 2.51
   6  0.333  0.667  0.000-   5 2.51   8 2.51   9 2.51  12 2.51  14 2.51  15 2.51   1 2.51   4 2.51
                             3 2.51
   7  0.667  0.000  0.000-   4 2.51   5 2.51  13 2.51  18 2.51   9 2.51   3 2.51   8 2.51   1 2.51
                            16 2.51
   8  0.667  0.333  0.000-   6 2.51   9 2.51   5 2.51  14 2.51  16 2.51  17 2.51   1 2.51   7 2.51
                             2 2.51
   9  0.667  0.667  0.000-   8 2.51   6 2.51   2 2.51   4 2.51  15 2.51  17 2.51   7 2.51   3 2.51
                            18 2.51
  10  0.111  0.111  0.078-  11 2.51  13 2.51  15 2.51  17 2.51   2 2.51   4 2.51  12 2.51  16 2.51
                             1 2.51  19 2.52  21 2.52  25 2.52
  11  0.111  0.444  0.078-  26 2.51  13 2.51  10 2.51  14 2.51   3 2.51   5 2.51   2 2.51  18 2.51
                            12 2.51  17 2.51  20 2.52  19 2.53
  12  0.111  0.778  0.078-  27 2.51  15 2.51  14 2.51   6 2.51   1 2.51  11 2.51  16 2.51  10 2.51
                            18 2.51   3 2.51  20 2.52  21 2.53
  13  0.444  0.111  0.078-  24 2.51  14 2.51  11 2.51  10 2.51   5 2.51   7 2.51   4 2.51  18 2.51
                            15 2.51  16 2.51  22 2.52  19 2.53
  14  0.444  0.444  0.078-  13 2.51  11 2.51   5 2.51  12 2.51  16 2.51   6 2.51   8 2.51  15 2.51
                            17 2.51  20 2.52  22 2.52  23 2.52
  15  0.444  0.778  0.078-  24 2.51  12 2.51  10 2.51   4 2.51   6 2.51   9 2.51  14 2.51  17 2.51
                            13 2.51  18 2.51  23 2.52  21 2.53
  16  0.778  0.111  0.078-  27 2.51  17 2.51  14 2.51   8 2.51   1 2.51  18 2.51  12 2.51  10 2.51
                            13 2.51   7 2.51  22 2.52  25 2.53
  17  0.778  0.444  0.078-  26 2.51  16 2.51  10 2.51   2 2.51   8 2.51   9 2.51  18 2.51  15 2.51
                            11 2.51  14 2.51  23 2.52  25 2.53
  18  0.778  0.778  0.078-   3 2.51   7 2.51  11 2.51  13 2.51  16 2.51  17 2.51  12 2.51  15 2.51
                             9 2.51  27 2.51  26 2.51  24 2.51
  19  0.222  0.222  0.157-  21 2.50  25 2.50  24 2.51  26 2.51  20 2.52  22 2.52  10 2.52  11 2.53
                            13 2.53
  20  0.222  0.556  0.157-  27 2.51  26 2.51  22 2.51  23 2.51  30 2.51  11 2.52  12 2.52  14 2.52
                            19 2.52  21 2.52  32 2.53  33 2.53
  21  0.222  0.890  0.157-  19 2.50  25 2.50  24 2.51  27 2.51  23 2.52  20 2.52  10 2.52  12 2.53
                            15 2.53
  22  0.556  0.222  0.157-  27 2.51  24 2.51  20 2.51  23 2.51  34 2.51  13 2.52  16 2.52  14 2.52
                            25 2.52  19 2.52  32 2.53  35 2.53
  23  0.556  0.556  0.157-  24 2.51  26 2.51  20 2.51  22 2.51  36 2.51  17 2.52  15 2.52  14 2.52
                            25 2.52  21 2.52  35 2.53  33 2.53
  24  0.555  0.889  0.156-  21 2.51  19 2.51  15 2.51  13 2.51  23 2.51  22 2.51  18 2.51  36 2.52
                            34 2.52  26 2.52  27 2.52
  25  0.890  0.222  0.157-  21 2.50  19 2.50  26 2.51  27 2.51  22 2.52  23 2.52  10 2.52  16 2.53
                            17 2.53
  26  0.889  0.555  0.156-  25 2.51  19 2.51  17 2.51  11 2.51  23 2.51  20 2.51  18 2.51  36 2.52
                            30 2.52  24 2.52  27 2.52
  27  0.889  0.889  0.156-  25 2.51  21 2.51  12 2.51  16 2.51  20 2.51  22 2.51  18 2.51  30 2.52
                            34 2.52  26 2.52  24 2.52
  28  0.995  0.995  0.238-  37 1.85  30 2.45  34 2.45  35 2.52  33 2.52
  29  0.995  0.343  0.238-  37 1.85  36 2.45  30 2.45  32 2.52  35 2.52
  30  0.999  0.667  0.235-  28 2.45  29 2.45  34 2.50  36 2.50  20 2.51  32 2.51  33 2.51  27 2.52
                            26 2.52
  31  0.343  0.995  0.238-  37 1.85  36 2.45  34 2.45  32 2.52  33 2.52
  32  0.334  0.334  0.236-  33 2.49  35 2.49  34 2.51  30 2.51  31 2.52  29 2.52  20 2.53  22 2.53

  33  0.334  0.665  0.236-  32 2.49  35 2.49  30 2.51  36 2.51  31 2.52  28 2.52  23 2.53  20 2.53

  34  0.667  0.999  0.235-  28 2.45  31 2.45  30 2.50  36 2.50  22 2.51  35 2.51  32 2.51  27 2.52
                            24 2.52
  35  0.665  0.334  0.236-  32 2.49  33 2.49  34 2.51  36 2.51  28 2.52  29 2.52  23 2.53  22 2.53

  36  0.667  0.667  0.235-  29 2.45  31 2.45  34 2.50  30 2.50  23 2.51  35 2.51  33 2.51  24 2.52
                            26 2.52
  37  0.111  0.111  0.279-  28 1.85  31 1.85  29 1.85
  38  0.444  0.444  0.328-
 
  LATTYP: Found a hexagonal cell.
 ALAT       =     7.5295418705
 C/A-ratio  =     3.4806131976
  
  Lattice vectors:
  
 A1 = (   3.7647709353,  -6.5207745387,   0.0000000000)
 A2 = (  -7.5295418705,   0.0000000000,   0.0000000000)
 A3 = (   0.0000000000,   0.0000000000, -26.2074228060)


Analysis of symmetry for initial positions (statically):
=====================================================================
 Subroutine PRICEL returns:
 Original cell was already a primitive cell.
 

 Routine SETGRP: Setting up the symmetry group for a 
 hexagonal supercell.


 Subroutine GETGRP returns: Found  6 space group operations
 (whereof  2 operations were pure point group operations)
 out of a pool of 24 trial point group operations.


The static configuration has the point symmetry C_1h.
 The point group associated with its full space group is C_3v.


Analysis of symmetry for dynamics (positions and initial velocities):
=====================================================================
 Subroutine PRICEL returns:
 Original cell was already a primitive cell.
 

 Routine SETGRP: Setting up the symmetry group for a 
 hexagonal supercell.


 Subroutine GETGRP returns: Found  6 space group operations
 (whereof  2 operations were pure point group operations)
 out of a pool of 24 trial point group operations.


The dynamic configuration has the point symmetry C_1h.
 The point group associated with its full space group is C_3v.


Analysis of constrained symmetry for selective dynamics:
=====================================================================
 Subroutine PRICEL returns:
 Original cell was already a primitive cell.
 

 Routine SETGRP: Setting up the symmetry group for a 
 hexagonal supercell.


 Subroutine GETGRP returns: Found  6 space group operations
 (whereof  2 operations were pure point group operations)
 out of a pool of 24 trial point group operations.


The constrained configuration has the point symmetry C_1h.
 The point group associated with its full space group is C_3v.
 
 
 KPOINTS: A                                       

Automatic generation of k-mesh.
Space group operators:
 irot       det(A)        alpha          n_x          n_y          n_z        tau_x        tau_y        tau_z
    1     1.000000     0.000000     1.000000     0.000000     0.000000     0.000000     0.000000     0.000000
    2    -1.000000   180.000000     0.500000    -0.866025     0.000000     0.000000     0.000000     0.000000
    3     1.000000   120.000000     0.000000     0.000000     1.000000     0.000000    -0.666667     0.000000
    4     1.000000   120.000000     0.000000     0.000000    -1.000000    -0.666667     0.000000     0.000000
    5    -1.000000   179.999999     1.000000     0.000000     0.000000    -0.666667     0.000000     0.000000
    6    -1.000000   180.000000    -0.500000    -0.866025     0.000000     0.000000    -0.666667     0.000000
 
 Subroutine IBZKPT returns following result:
 ===========================================
 
 Found      4 irreducible k-points:
 
 Following reciprocal coordinates:
            Coordinates               Weight
  0.000000  0.000000  0.000000      1.000000
  0.250000  0.000000  0.000000      6.000000
  0.500000  0.000000  0.000000      3.000000
  0.500000  0.250000  0.000000      6.000000
 
 Following cartesian coordinates:
            Coordinates               Weight
  0.000000  0.000000  0.000000      1.000000
  0.033203 -0.019170  0.000000      6.000000
  0.066405 -0.038339  0.000000      3.000000
  0.066405  0.000000  0.000000      6.000000
 


--------------------------------------------------------------------------------------------------------




 Dimension of arrays:
   k-points           NKPTS =      4   k-points in BZ     NKDIM =      4   number of bands    NBANDS=    372
   number of dos      NEDOS =    301   number of ions     NIONS =     38
   non local maximal  LDIM  =      6   non local SUM 2l+1 LMDIM =     18
   total plane-waves  NPLWV = 450000
   max r-space proj   IRMAX =      1   max aug-charges    IRDMAX=   7098
   dimension x,y,z NGX =    50 NGY =   50 NGZ =  180
   dimension x,y,z NGXF=   100 NGYF=  100 NGZF=  360
   support grid    NGXF=   100 NGYF=  100 NGZF=  360
   ions per type =              36   2
 NGX,Y,Z   is equivalent  to a cutoff of  11.04, 11.04, 11.42 a.u.
 NGXF,Y,Z  is equivalent  to a cutoff of  22.08, 22.08, 22.84 a.u.


 I would recommend the setting:
   dimension x,y,z NGX =    49 NGY =   49 NGZ =  171
 SYSTEM =  unknown system                          
 POSCAR =  test                                    

 Startparameter for this run:
   NWRITE =      2    write-flag & timer
   PREC   = accura    normal or accurate (medium, high low for compatibility)
   ISTART =      0    job   : 0-new  1-cont  2-samecut
   ICHARG =      2    charge: 1-file 2-atom 10-const
   ISPIN  =      1    spin polarized calculation?
   LNONCOLLINEAR =      F non collinear calculations
   LSORBIT =      F    spin-orbit coupling
   INIWAV =      1    electr: 0-lowe 1-rand  2-diag
   LASPH  =      T    aspherical Exc in radial PAW
   METAGGA=      F    non-selfconsistent MetaGGA calc.

 Electronic Relaxation 1
   ENCUT  =  400.0 eV  29.40 Ry    5.42 a.u.  12.28 12.28 42.74*2*pi/ulx,y,z
   ENINI  =  400.0     initial cutoff
   ENAUG  =  758.2 eV  augmentation charge cutoff
   NELM   =     60;   NELMIN=  5; NELMDL= -5     # of ELM steps 
   EDIFF  = 0.1E-04   stopping-criterion for ELM
   LREAL  =      F    real-space projection
   NLSPLINE    = F    spline interpolate recip. space projectors
   LCOMPAT=      F    compatible to vasp.4.4
   GGA_COMPAT  = T    GGA compatible to vasp.4.4-vasp.4.6
   LMAXPAW     = -100 max onsite density
   LMAXMIX     =    2 max onsite mixed and CHGCAR
   VOSKOWN=      0    Vosko Wilk Nusair interpolation
   ROPT   =    0.00000   0.00000
 Ionic relaxation
   EDIFFG = 0.1E-03   stopping-criterion for IOM
   NSW    =    150    number of steps for IOM
   NBLOCK =      1;   KBLOCK =    150    inner block; outer block 
   IBRION =      2    ionic relax: 0-MD 1-quasi-New 2-CG
   NFREE  =      1    steps in history (QN), initial steepest desc. (CG)
   ISIF   =      2    stress and relaxation
   IWAVPR =     11    prediction:  0-non 1-charg 2-wave 3-comb
   ISYM   =      2    0-nonsym 1-usesym 2-fastsym
   LCORR  =      T    Harris-Foulkes like correction to forces

   POTIM  = 0.5000    time-step for ionic-motion
   TEIN   =    0.0    initial temperature
   TEBEG  =    0.0;   TEEND  =   0.0 temperature during run
   SMASS  =  -3.00    Nose mass-parameter (am)
   estimated Nose-frequenzy (Omega)   =  0.10E-29 period in steps =****** mass=  -0.130E-26a.u.
   SCALEE = 1.0000    scale energy and forces
   NPACO  =    256;   APACO  = 16.0  distance and # of slots for P.C.
   PSTRESS=    0.0 pullay stress

  Mass of Ions in am
   POMASS =  63.55 12.01
  Ionic Valenz
   ZVAL   =  17.00  4.00
  Atomic Wigner-Seitz radii
   RWIGS  =  -1.00 -1.00
  virtual crystal weights 
   VCA    =   1.00  1.00
   NELECT =     620.0000    total number of electrons
   NUPDOWN=      -1.0000    fix difference up-down

 DOS related values:
   EMIN   =  10.00;   EMAX   =-10.00  energy-range for DOS
   EFERMI =   0.00
   ISMEAR =     0;   SIGMA  =   0.10  broadening in eV -4-tet -1-fermi 0-gaus

 Electronic relaxation 2 (details)
   IALGO  =     38    algorithm
   LDIAG  =      T    sub-space diagonalisation (order eigenvalues)
   LSUBROT=      F    optimize rotation matrix (better conditioning)
   TURBO    =      0    0=normal 1=particle mesh
   IRESTART =      0    0=no restart 2=restart with 2 vectors
   NREBOOT  =      0    no. of reboots
   NMIN     =      0    reboot dimension
   EREF     =   0.00    reference energy to select bands
   IMIX   =      4    mixing-type and parameters
     AMIX     =   0.40;   BMIX     =  1.00
     AMIX_MAG =   1.60;   BMIX_MAG =  1.00
     AMIN     =   0.10
     WC   =   100.;   INIMIX=   1;  MIXPRE=   1;  MAXMIX= -45

 Intra band minimization:
   WEIMIN = 0.0010     energy-eigenvalue tresh-hold
   EBREAK =  0.67E-08  absolut break condition
   DEPER  =   0.30     relativ break condition  

   TIME   =   0.40     timestep for ELM

  volume/ion in A,a.u.               =      33.86       228.51
  Fermi-wavevector in a.u.,A,eV,Ry     =   1.283437  2.425345 22.411676  1.647212
  Thomas-Fermi vector in A             =   2.415690
 
 Write flags
   LWAVE  =      F    write WAVECAR
   LCHARG =      F    write CHGCAR
   LVTOT  =      F    write LOCPOT, total local potential
   LVHAR  =      F    write LOCPOT, Hartree potential only
   LELF   =      F    write electronic localiz. function (ELF)
   LORBIT =     10    0 simple, 1 ext, 2 COOP (PROOUT)


 Dipole corrections
   LMONO  =      F    monopole corrections only (constant potential shift)
   LDIPOL =      T    correct potential (dipole corrections)
   IDIPOL =      3    1-x, 2-y, 3-z, 4-all directions 
   EPSILON=  1.0000000 bulk dielectric constant

 Exchange correlation treatment:
   GGA     =    --    GGA type
   LEXCH   =     8    internal setting for exchange type
   VOSKOWN=      0    Vosko Wilk Nusair interpolation
   LHFCALC =     F    Hartree Fock is set to
   LHFONE  =     F    Hartree Fock one center treatment
   AEXX    =    0.0000 exact exchange contribution

 Linear response parameters
   LEPSILON=     F    determine dielectric tensor
   LRPA    =     F    only Hartree local field effects (RPA)
   LNABLA  =     F    use nabla operator in PAW spheres
   LVEL    =     F    velocity operator in full k-point grid
   LINTERFAST=   F  fast interpolation
   KINTER  =     0    interpolate to denser k-point grid
   CSHIFT  =0.1000    complex shift for real part using Kramers Kronig
   OMEGAMAX=  -1.0    maximum frequency
   DEG_THRESHOLD= 0.2000000E-02 threshold for treating states as degnerate
   RTIME   =    0.100 relaxation time in fs

 Orbital magnetization related:
   ORBITALMAG=     F  switch on orbital magnetization
   LCHIMAG   =     F  perturbation theory with respect to B field
   DQ        =  0.001000  dq finite difference perturbation B field



--------------------------------------------------------------------------------------------------------


 conjugate gradient relaxation of ions
   using selective dynamics as specified on POSCAR
   WARNING: If single coordinates had been selected the selection of coordinates
            is made according to the corresponding   d i r e c t   coordinates!
            Don't support selection of single cartesian coordinates -- sorry ...
  !
 charge density and potential will be updated during run
 non-spin polarized calculation
 Variant of blocked Davidson
 Davidson routine will perform the subspace rotation
 perform sub-space diagonalisation
    after iterative eigenvector-optimisation
 modified Broyden-mixing scheme, WC =      100.0
 initial mixing is a Kerker type mixing with AMIX =  0.4000 and BMIX =      1.0000
 Hartree-type preconditioning will be used
 using additional bands           62
 reciprocal scheme for non local part
 use partial core corrections
 calculate Harris-corrections to forces 
   (improved forces if not selfconsistent)
 use gradient corrections 
 use of overlap-Matrix (Vanderbilt PP)
 Gauss-broadening in eV      SIGMA  =   0.10


--------------------------------------------------------------------------------------------------------


  energy-cutoff  :      400.00
  volume of cell :     1286.74
      direct lattice vectors                 reciprocal lattice vectors
     7.529541871  0.000000000  0.000000000     0.132810205 -0.076678008  0.000000000
     3.764770935  6.520774539  0.000000000     0.000000000  0.153356015  0.000000000
     0.000000000  0.000000000 26.207422806     0.000000000  0.000000000  0.038157129

  length of vectors
     7.529541871  7.529541871 26.207422806     0.153356015  0.153356015  0.038157129


 
 k-points in units of 2pi/SCALE and weight: A                                       
   0.00000000  0.00000000  0.00000000       0.062
   0.03320255 -0.01916950  0.00000000       0.375
   0.06640510 -0.03833900  0.00000000       0.188
   0.06640510  0.00000000  0.00000000       0.375
 
 k-points in reciprocal lattice and weights: A                                       
   0.00000000  0.00000000  0.00000000       0.062
   0.25000000  0.00000000  0.00000000       0.375
   0.50000000  0.00000000  0.00000000       0.188
   0.50000000  0.25000000  0.00000000       0.375
 
 position of ions in fractional coordinates (direct lattice) 
   0.00000000  0.00000000  0.00000000
   0.00000000  0.33333333  0.00000000
   0.00000000  0.66666667  0.00000000
   0.33333333  0.00000000  0.00000000
   0.33333333  0.33333333  0.00000000
   0.33333333  0.66666667  0.00000000
   0.66666667  0.00000000  0.00000000
   0.66666667  0.33333333  0.00000000
   0.66666667  0.66666667  0.00000000
   0.11111111  0.11111111  0.07819471
   0.11111111  0.44444444  0.07819471
   0.11111111  0.77777778  0.07819471
   0.44444444  0.11111111  0.07819471
   0.44444444  0.44444444  0.07819471
   0.44444444  0.77777778  0.07819471
   0.77777778  0.11111111  0.07819471
   0.77777778  0.44444444  0.07819471
   0.77777778  0.77777778  0.07819471
   0.22156672  0.22156672  0.15698183
   0.22219376  0.55556979  0.15663707
   0.22156672  0.89019990  0.15698183
   0.55556979  0.22219376  0.15663707
   0.55556979  0.55556979  0.15663707
   0.55498583  0.88917375  0.15640686
   0.89019990  0.22156672  0.15698183
   0.88917375  0.55498583  0.15640686
   0.88917375  0.88917375  0.15640686
   0.99499124  0.99499124  0.23819225
   0.99499124  0.34335085  0.23819225
   0.99922840  0.66705247  0.23489935
   0.34335085  0.99499124  0.23819225
   0.33432735  0.33432735  0.23600336
   0.33432735  0.66467863  0.23600336
   0.66705247  0.99922840  0.23489935
   0.66467863  0.33432735  0.23600336
   0.66705247  0.66705247  0.23489935
   0.11111111  0.11111111  0.27869515
   0.44444444  0.44444444  0.32773892
 
 position of ions in cartesian coordinates  (Angst):
   0.00000000  0.00000000  0.00000000
   1.25492365  2.17359151  0.00000000
   2.50984729  4.34718303  0.00000000
   2.50984729  0.00000000  0.00000000
   3.76477094  2.17359151  0.00000000
   5.01969458  4.34718303  0.00000000
   5.01969458  0.00000000  0.00000000
   6.27461823  2.17359151  0.00000000
   7.52954187  4.34718303  0.00000000
   1.25492365  0.72453050  2.04928173
   2.50984729  2.89812202  2.04928173
   3.76477094  5.07171353  2.04928173
   3.76477094  0.72453050  2.04928173
   5.01969458  2.89812202  2.04928173
   6.27461823  5.07171353  2.04928173
   6.27461823  0.72453050  2.04928173
   7.52954187  2.89812202  2.04928173
   8.78446552  5.07171353  2.04928173
   2.50244382  1.44478661  4.11408920
   3.76461022  3.62274531  4.10505404
   5.01969458  5.80479283  4.11408920
   5.01969458  1.44887543  4.10505404
   6.27477894  3.62274531  4.10505404
   7.52632455  5.79810156  4.09902060
   7.53694534  1.44478661  4.11408920
   8.78446552  3.61893748  4.09902060
  10.04260648  5.79810156  4.09902060
  11.23774235  6.48811357  6.24240511
   8.78446552  2.23891345  6.24240511
  10.03503183  4.34969873  6.15610664
   6.33118869  6.48811357  6.24240511
   3.77599767  2.18007327  6.18503992
   5.01969458  4.33421950  6.18503992
   8.78446552  6.51574312  6.15610664
   6.26339149  2.18007327  6.18503992
   7.53389920  4.34969873  6.15610664
   1.25492365  0.72453050  7.30388161
   5.01969458  2.89812202  8.58919233
 


--------------------------------------------------------------------------------------------------------


 k-point  1 :   0.0000 0.0000 0.0000  plane waves:   23509
 k-point  2 :   0.2500 0.0000 0.0000  plane waves:   23337
 k-point  3 :   0.5000 0.0000 0.0000  plane waves:   23358
 k-point  4 :   0.5000 0.2500 0.0000  plane waves:   23380

 maximum and minimum number of plane-waves per node :      1196     1154

 maximum number of plane-waves:     23509
 maximum index in each direction: 
   IXMAX=   12   IYMAX=   12   IZMAX=   42
   IXMIN=  -12   IYMIN=  -12   IZMIN=  -42

 NGX is ok and might be reduce to  50
 NGY is ok and might be reduce to  50
 NGZ is ok and might be reduce to 170

 parallel 3D FFT for wavefunctions:
    minimum data exchange during FFTs selected (reduces bandwidth)
 parallel 3D FFT for charge:
    minimum data exchange during FFTs selected (reduces bandwidth)


 total amount of memory used by VASP on root node    47514. kBytes
========================================================================

   base      :      30000. kBytes
   nonl-proj :       2083. kBytes
   fftplans  :       3009. kBytes
   grid      :       5130. kBytes
   one-center:         31. kBytes
   wavefun   :       7261. kBytes
 
     INWAV:  cpu time    0.00: real time    0.00
 Broyden mixing: mesh for mixing (old mesh)
   NGX = 25   NGY = 25   NGZ = 85
  (NGX  =100   NGY  =100   NGZ  =360)
  gives a total of  53125 points

 initial charge density was supplied:
 charge density of overlapping atoms calculated
 number of electron     620.0000000 magnetization 
 keeping initial charge density in first step


--------------------------------------------------------------------------------------------------------


 Maximum index for augmentation-charges          398 (set IRDMAX)


--------------------------------------------------------------------------------------------------------


 First call to EWALD:  gamma=   0.163
 Maximum number of real-space cells 4x 4x 1
 Maximum number of reciprocal cells 2x 2x 6

 FEWALD executed in parallel
    FEWALD:  cpu time    0.00: real time    0.00


----------------------------------------- Iteration    1(   1)  ---------------------------------------


    POTLOK:  cpu time    0.08: real time    0.08
    SETDIJ:  cpu time    0.18: real time    0.18
     EDDAV:  cpu time    5.30: real time    5.30
       DOS:  cpu time    0.00: real time    0.00
    --------------------------------------------
      LOOP:  cpu time    5.56: real time    5.66

 eigenvalue-minimisations  :  3760
 total energy-change (2. order) : 0.6079167E+04  (-0.4027618E+05)
 number of electron     620.0000000 magnetization 
 augmentation part      620.0000000 magnetization 

 DIPCOR: dipole corrections for dipol
 direction  3 min pos   249,
 dipolmoment           0.000000      0.000000      0.000764 electrons x Angstroem
 Tr[quadrupol]     -5702.964774

 energy correction for charged system         0.000000 eV
 dipol+quadrupol energy correction            0.000000 eV
 added-field ion interaction          0.119980 eV  (added to PSCEN)


 Free energy of the ion-electron system (eV)
  ---------------------------------------------------
  alpha Z        PSCENC =      1866.26335712
  Ewald energy   TEWEN  =    636823.28374851
  -Hartree energ DENC   =   -769951.94969130
  -exchange      EXHF   =         0.00000000
  -V(xc)+E(xc)   XCENC  =      3922.22722045
  PAW double counting   =    125492.59529247  -130873.98637355
  entropy T*S    EENTRO =        -0.05710388
  eigenvalues    EBANDS =     -9814.20081000
  atomic energy  EATOM  =    148614.99170617
  ---------------------------------------------------
  free energy    TOTEN  =      6079.16734600 eV

  energy without entropy =     6079.22444988  energy(sigma->0) =     6079.19589794


--------------------------------------------------------------------------------------------------------




----------------------------------------- Iteration    1(   2)  ---------------------------------------


     EDDAV:  cpu time    4.64: real time    4.64
       DOS:  cpu time    0.00: real time    0.00
    --------------------------------------------
      LOOP:  cpu time    4.64: real time    4.80

 eigenvalue-minimisations  :  3136
 total energy-change (2. order) :-0.5913408E+04  (-0.5758574E+04)
 number of electron     620.0000000 magnetization 
 augmentation part      620.0000000 magnetization 

 DIPCOR: dipole corrections for dipol
 direction  3 min pos   249,
 dipolmoment           0.000000      0.000000      0.000764 electrons x Angstroem
 Tr[quadrupol]     -5702.964774

 energy correction for charged system         0.000000 eV
 dipol+quadrupol energy correction            0.000000 eV
 added-field ion interaction          0.119980 eV  (added to PSCEN)


 Free energy of the ion-electron system (eV)
  ---------------------------------------------------
  alpha Z        PSCENC =      1866.26335712
  Ewald energy   TEWEN  =    636823.28374851
  -Hartree energ DENC   =   -769951.94969130
  -exchange      EXHF   =         0.00000000
  -V(xc)+E(xc)   XCENC  =      3922.22722045
  PAW double counting   =    125492.59529247  -130873.98637355
  entropy T*S    EENTRO =        -0.06646470
  eigenvalues    EBANDS =    -15727.59991390
  atomic energy  EATOM  =    148614.99170617
  ---------------------------------------------------
  free energy    TOTEN  =       165.75888127 eV

  energy without entropy =      165.82534597  energy(sigma->0) =      165.79211362


--------------------------------------------------------------------------------------------------------




----------------------------------------- Iteration    1(   3)  ---------------------------------------


     EDDAV:  cpu time    4.69: real time    4.70
       DOS:  cpu time    0.00: real time    0.00
    --------------------------------------------
      LOOP:  cpu time    4.70: real time    4.95

 eigenvalue-minimisations  :  3248
 total energy-change (2. order) :-0.3271388E+03  (-0.3147837E+03)
 number of electron     620.0000000 magnetization 
 augmentation part      620.0000000 magnetization 

 DIPCOR: dipole corrections for dipol
 direction  3 min pos   249,
 dipolmoment           0.000000      0.000000      0.000764 electrons x Angstroem
 Tr[quadrupol]     -5702.964774

 energy correction for charged system         0.000000 eV
 dipol+quadrupol energy correction            0.000000 eV
 added-field ion interaction          0.119980 eV  (added to PSCEN)


 Free energy of the ion-electron system (eV)
  ---------------------------------------------------
  alpha Z        PSCENC =      1866.26335712
  Ewald energy   TEWEN  =    636823.28374851
  -Hartree energ DENC   =   -769951.94969130
  -exchange      EXHF   =         0.00000000
  -V(xc)+E(xc)   XCENC  =      3922.22722045
  PAW double counting   =    125492.59529247  -130873.98637355
  entropy T*S    EENTRO =        -0.07532776
  eigenvalues    EBANDS =    -16054.72981899
  atomic energy  EATOM  =    148614.99170617
  ---------------------------------------------------
  free energy    TOTEN  =      -161.37988687 eV

  energy without entropy =     -161.30455911  energy(sigma->0) =     -161.34222299


--------------------------------------------------------------------------------------------------------




----------------------------------------- Iteration    1(   4)  ---------------------------------------


     EDDAV:  cpu time    4.67: real time    4.67
       DOS:  cpu time    0.00: real time    0.00
    --------------------------------------------
      LOOP:  cpu time    4.67: real time    4.75

 eigenvalue-minimisations  :  3200
 total energy-change (2. order) :-0.9913807E+01  (-0.9786898E+01)
 number of electron     620.0000000 magnetization 
 augmentation part      620.0000000 magnetization 

 DIPCOR: dipole corrections for dipol
 direction  3 min pos   249,
 dipolmoment           0.000000      0.000000      0.000764 electrons x Angstroem
 Tr[quadrupol]     -5702.964774

 energy correction for charged system         0.000000 eV
 dipol+quadrupol energy correction            0.000000 eV
 added-field ion interaction          0.119980 eV  (added to PSCEN)


 Free energy of the ion-electron system (eV)
  ---------------------------------------------------
  alpha Z        PSCENC =      1866.26335712
  Ewald energy   TEWEN  =    636823.28374851
  -Hartree energ DENC   =   -769951.94969130
  -exchange      EXHF   =         0.00000000
  -V(xc)+E(xc)   XCENC  =      3922.22722045
  PAW double counting   =    125492.59529247  -130873.98637355
  entropy T*S    EENTRO =        -0.06737765
  eigenvalues    EBANDS =    -16064.65157565
  atomic energy  EATOM  =    148614.99170617
  ---------------------------------------------------
  free energy    TOTEN  =      -171.29369343 eV

  energy without entropy =     -171.22631577  energy(sigma->0) =     -171.26000460


--------------------------------------------------------------------------------------------------------




----------------------------------------- Iteration    1(   5)  ---------------------------------------


     EDDAV:  cpu time    4.99: real time    4.99
       DOS:  cpu time    0.00: real time    0.00
    CHARGE:  cpu time    0.24: real time    0.24
    MIXING:  cpu time    0.00: real time    0.00
    --------------------------------------------
      LOOP:  cpu time    5.23: real time    5.38

 eigenvalue-minimisations  :  3520
 total energy-change (2. order) :-0.3541299E+00  (-0.3539746E+00)
 number of electron     620.0000318 magnetization 
 augmentation part      371.6797644 magnetization 

 DIPCOR: dipole corrections for dipol
 direction  3 min pos   249,
 dipolmoment           0.000000      0.000000      0.000764 electrons x Angstroem
 Tr[quadrupol]     -5702.964774

 energy correction for charged system         0.000000 eV
 dipol+quadrupol energy correction            0.000000 eV
 added-field ion interaction          0.119980 eV  (added to PSCEN)


 Broyden mixing:
  rms(total) = 0.59989E+01    rms(broyden)= 0.59971E+01
  rms(prec ) = 0.62893E+01
  weight for this iteration     100.00

 Free energy of the ion-electron system (eV)
  ---------------------------------------------------
  alpha Z        PSCENC =      1866.26335712
  Ewald energy   TEWEN  =    636823.28374851
  -Hartree energ DENC   =   -769951.94969130
  -exchange      EXHF   =         0.00000000
  -V(xc)+E(xc)   XCENC  =      3922.22722045
  PAW double counting   =    125492.59529247  -130873.98637355
  entropy T*S    EENTRO =        -0.06715588
  eigenvalues    EBANDS =    -16065.00592736
  atomic energy  EATOM  =    148614.99170617
  ---------------------------------------------------
  free energy    TOTEN  =      -171.64782336 eV

  energy without entropy =     -171.58066748  energy(sigma->0) =     -171.61424542


--------------------------------------------------------------------------------------------------------




----------------------------------------- Iteration    1(   6)  ---------------------------------------


    POTLOK:  cpu time    0.07: real time    0.07
    SETDIJ:  cpu time    0.18: real time    0.18
     EDDAV:  cpu time    5.02: real time    5.03
       DOS:  cpu time    0.00: real time    0.00
    CHARGE:  cpu time    0.23: real time    0.23
    MIXING:  cpu time    0.00: real time    0.00
    --------------------------------------------
      LOOP:  cpu time    5.51: real time    5.57

 eigenvalue-minimisations  :  3536
 total energy-change (2. order) :-0.3396517E+02  (-0.4347062E+02)
 number of electron     620.0000351 magnetization 
 augmentation part      403.1477552 magnetization 

 DIPCOR: dipole corrections for dipol
 direction  3 min pos   240,
 dipolmoment           0.000000      0.000000      2.120573 electrons x Angstroem
 Tr[quadrupol]     -5698.404293

 energy correction for charged system         0.000000 eV
 dipol+quadrupol energy correction           -0.316193 eV
 added-field ion interaction        211.691757 eV  (added to PSCEN)


 Broyden mixing:
  rms(total) = 0.78400E+01    rms(broyden)= 0.78393E+01
  rms(prec ) = 0.85515E+01
  weight for this iteration     100.00

 eigenvalues of (default mixing * dielectric matrix)
  average eigenvalue GAMMA=   0.3826
  0.3826

 Free energy of the ion-electron system (eV)
  ---------------------------------------------------
  alpha Z        PSCENC =      2077.51894162
  Ewald energy   TEWEN  =    636823.28374851
  -Hartree energ DENC   =   -767070.51902056
  -exchange      EXHF   =         0.00000000
  -V(xc)+E(xc)   XCENC  =      3846.42509605
  PAW double counting   =    123828.97440660  -129060.00755689
  entropy T*S    EENTRO =        -0.13596129
  eigenvalues    EBANDS =    -19266.14435833
  atomic energy  EATOM  =    148614.99170617
  ---------------------------------------------------
  free energy    TOTEN  =      -205.61299813 eV

  energy without entropy =     -205.47703683  energy(sigma->0) =     -205.54501748


--------------------------------------------------------------------------------------------------------




----------------------------------------- Iteration    1(   7)  ---------------------------------------


    POTLOK:  cpu time    0.08: real time    0.08
    SETDIJ:  cpu time    0.18: real time    0.18
     EDDAV:  cpu time    5.24: real time    5.24
       DOS:  cpu time    0.00: real time    0.00
    CHARGE:  cpu time    0.23: real time    0.23
    MIXING:  cpu time    0.00: real time    0.00
    --------------------------------------------
      LOOP:  cpu time    5.73: real time    5.80

 eigenvalue-minimisations  :  3740
 total energy-change (2. order) : 0.4940650E+02  (-0.1127553E+02)
 number of electron     620.0000328 magnetization 
 augmentation part      396.1283716 magnetization 

 DIPCOR: dipole corrections for dipol
 direction  3 min pos   235,
 dipolmoment           0.000000      0.000000     -0.911522 electrons x Angstroem
 Tr[quadrupol]     -5698.767061

 energy correction for charged system         0.000000 eV
 dipol+quadrupol energy correction           -0.058422 eV
 added-field ion interaction        -62.066570 eV  (added to PSCEN)


 Broyden mixing:
  rms(total) = 0.52062E+01    rms(broyden)= 0.52050E+01
  rms(prec ) = 0.57838E+01
  weight for this iteration     100.00

 eigenvalues of (default mixing * dielectric matrix)
  average eigenvalue GAMMA=   0.4010
  0.4010  0.4010

 Free energy of the ion-electron system (eV)
  ---------------------------------------------------
  alpha Z        PSCENC =      1804.01838460
  Ewald energy   TEWEN  =    636823.28374851
  -Hartree energ DENC   =   -768055.54608409
  -exchange      EXHF   =         0.00000000
  -V(xc)+E(xc)   XCENC  =      3862.36440049
  PAW double counting   =    125972.34856786  -131321.18680486
  entropy T*S    EENTRO =        -0.08423029
  eigenvalues    EBANDS =    -17856.39618377
  atomic energy  EATOM  =    148614.99170617
  ---------------------------------------------------
  free energy    TOTEN  =      -156.20649537 eV

  energy without entropy =     -156.12226508  energy(sigma->0) =     -156.16438023


--------------------------------------------------------------------------------------------------------




----------------------------------------- Iteration    1(   8)  ---------------------------------------


    POTLOK:  cpu time    0.07: real time    0.07
    SETDIJ:  cpu time    0.18: real time    0.18
     EDDAV:  cpu time    5.27: real time    5.28
       DOS:  cpu time    0.00: real time    0.00
    CHARGE:  cpu time    0.23: real time    0.23
    MIXING:  cpu time    0.00: real time    0.00
    --------------------------------------------
      LOOP:  cpu time    5.76: real time    5.82

 eigenvalue-minimisations  :  3796
 total energy-change (2. order) : 0.4034037E+01  (-0.7885462E+01)
 number of electron     620.0000346 magnetization 
 augmentation part      395.9032708 magnetization 

 DIPCOR: dipole corrections for dipol
 direction  3 min pos   224,
 dipolmoment           0.000000      0.000000      1.195403 electrons x Angstroem
 Tr[quadrupol]     -5701.521571

 energy correction for charged system         0.000000 eV
 dipol+quadrupol energy correction           -0.100479 eV
 added-field ion interaction         -2.066830 eV  (added to PSCEN)


 Broyden mixing:
  rms(total) = 0.32778E+01    rms(broyden)= 0.32763E+01
  rms(prec ) = 0.39721E+01
  weight for this iteration     100.00

 eigenvalues of (default mixing * dielectric matrix)
  average eigenvalue GAMMA=   0.6332
  0.8373  0.8373  0.2250

 Free energy of the ion-electron system (eV)
  ---------------------------------------------------
  alpha Z        PSCENC =      1863.97606891
  Ewald energy   TEWEN  =    636823.28374851
  -Hartree energ DENC   =   -768253.69603418
  -exchange      EXHF   =         0.00000000
  -V(xc)+E(xc)   XCENC  =      3866.82594676
  PAW double counting   =    126726.93616156  -132125.88579914
  entropy T*S    EENTRO =        -0.09425456
  eigenvalues    EBANDS =    -17668.51000199
  atomic energy  EATOM  =    148614.99170617
  ---------------------------------------------------
  free energy    TOTEN  =      -152.17245797 eV

  energy without entropy =     -152.07820341  energy(sigma->0) =     -152.12533069


--------------------------------------------------------------------------------------------------------




----------------------------------------- Iteration    1(   9)  ---------------------------------------


    POTLOK:  cpu time    0.07: real time    0.07
    SETDIJ:  cpu time    0.18: real time    0.18
     EDDAV:  cpu time    5.30: real time    5.30
       DOS:  cpu time    0.00: real time    0.00
    CHARGE:  cpu time    0.23: real time    0.23
    MIXING:  cpu time    0.00: real time    0.00
    --------------------------------------------
      LOOP:  cpu time    5.78: real time    6.07

 eigenvalue-minimisations  :  3808
 total energy-change (2. order) : 0.5741942E+01  (-0.4097817E+01)
 number of electron     620.0000327 magnetization 
 augmentation part      389.6183580 magnetization 

 DIPCOR: dipole corrections for dipol
 direction  3 min pos   224,
 dipolmoment           0.000000      0.000000     -0.689786 electrons x Angstroem
 Tr[quadrupol]     -5704.261098

 energy correction for charged system         0.000000 eV
 dipol+quadrupol energy correction           -0.033456 eV
 added-field ion interaction          1.192627 eV  (added to PSCEN)


 Broyden mixing:
  rms(total) = 0.22883E+01    rms(broyden)= 0.22873E+01
  rms(prec ) = 0.30667E+01
  weight for this iteration     100.00

 eigenvalues of (default mixing * dielectric matrix)
  average eigenvalue GAMMA=   0.6106
  1.1208  0.6245  0.4972  0.1998

 Free energy of the ion-electron system (eV)
  ---------------------------------------------------
  alpha Z        PSCENC =      1867.30254859
  Ewald energy   TEWEN  =    636823.28374851
  -Hartree energ DENC   =   -768753.88522061
  -exchange      EXHF   =         0.00000000
  -V(xc)+E(xc)   XCENC  =      3876.35604886
  PAW double counting   =    128109.29117633  -133626.82953285
  entropy T*S    EENTRO =        -0.10134679
  eigenvalues    EBANDS =    -17056.83964405
  atomic energy  EATOM  =    148614.99170617
  ---------------------------------------------------
  free energy    TOTEN  =      -146.43051582 eV

  energy without entropy =     -146.32916903  energy(sigma->0) =     -146.37984242


--------------------------------------------------------------------------------------------------------




----------------------------------------- Iteration    1(  10)  ---------------------------------------


    POTLOK:  cpu time    0.07: real time    0.07
    SETDIJ:  cpu time    0.18: real time    0.18
     EDDAV:  cpu time    5.13: real time    5.14
       DOS:  cpu time    0.00: real time    0.00
    CHARGE:  cpu time    0.23: real time    0.23
    MIXING:  cpu time    0.00: real time    0.00
    --------------------------------------------
      LOOP:  cpu time    5.63: real time    5.69

 eigenvalue-minimisations  :  3608
 total energy-change (2. order) : 0.1082325E+02  (-0.2308824E+01)
 number of electron     620.0000334 magnetization 
 augmentation part      390.3875655 magnetization 

 DIPCOR: dipole corrections for dipol
 direction  3 min pos   221,
 dipolmoment           0.000000      0.000000      0.120648 electrons x Angstroem
 Tr[quadrupol]     -5701.732426

 energy correction for charged system         0.000000 eV
 dipol+quadrupol energy correction           -0.001023 eV
 added-field ion interaction         -2.505954 eV  (added to PSCEN)


 Broyden mixing:
  rms(total) = 0.99708E+00    rms(broyden)= 0.99565E+00
  rms(prec ) = 0.11195E+01
  weight for this iteration     100.00

 eigenvalues of (default mixing * dielectric matrix)
  average eigenvalue GAMMA=   0.6196
  1.4093  0.5567  0.5567  0.3805  0.1952

 Free energy of the ion-electron system (eV)
  ---------------------------------------------------
  alpha Z        PSCENC =      1863.63639963
  Ewald energy   TEWEN  =    636823.28374851
  -Hartree energ DENC   =   -768564.95203390
  -exchange      EXHF   =         0.00000000
  -V(xc)+E(xc)   XCENC  =      3876.96704944
  PAW double counting   =    128444.95327646  -133987.25243061
  entropy T*S    EENTRO =        -0.06424802
  eigenvalues    EBANDS =    -17207.17072867
  atomic energy  EATOM  =    148614.99170617
  ---------------------------------------------------
  free energy    TOTEN  =      -135.60726099 eV

  energy without entropy =     -135.54301297  energy(sigma->0) =     -135.57513698


--------------------------------------------------------------------------------------------------------




----------------------------------------- Iteration    1(  11)  ---------------------------------------


    POTLOK:  cpu time    0.07: real time    0.07
    SETDIJ:  cpu time    0.18: real time    0.18
     EDDAV:  cpu time    5.00: real time    5.01
       DOS:  cpu time    0.00: real time    0.00
    CHARGE:  cpu time    0.23: real time    0.23
    MIXING:  cpu time    0.00: real time    0.00
    --------------------------------------------
      LOOP:  cpu time    5.49: real time    5.70

 eigenvalue-minimisations  :  3528
 total energy-change (2. order) :-0.8982491E+00  (-0.1136882E+01)
 number of electron     620.0000338 magnetization 
 augmentation part      388.5409929 magnetization 

 DIPCOR: dipole corrections for dipol
 direction  3 min pos   223,
 dipolmoment           0.000000      0.000000      0.122670 electrons x Angstroem
 Tr[quadrupol]     -5704.131742

 energy correction for charged system         0.000000 eV
 dipol+quadrupol energy correction           -0.001058 eV
 added-field ion interaction         -0.990718 eV  (added to PSCEN)


 Broyden mixing:
  rms(total) = 0.13212E+01    rms(broyden)= 0.13206E+01
  rms(prec ) = 0.15548E+01
  weight for this iteration     100.00

 eigenvalues of (default mixing * dielectric matrix)
  average eigenvalue GAMMA=   0.6167
  1.6404  0.6196  0.6196  0.4160  0.2023  0.2023

 Free energy of the ion-electron system (eV)
  ---------------------------------------------------
  alpha Z        PSCENC =      1865.15160151
  Ewald energy   TEWEN  =    636823.28374851
  -Hartree energ DENC   =   -768717.75009890
  -exchange      EXHF   =         0.00000000
  -V(xc)+E(xc)   XCENC  =      3875.84060354
  PAW double counting   =    128740.53126236  -134296.74369609
  entropy T*S    EENTRO =        -0.09737636
  eigenvalues    EBANDS =    -17041.71326081
  atomic energy  EATOM  =    148614.99170617
  ---------------------------------------------------
  free energy    TOTEN  =      -136.50551006 eV

  energy without entropy =     -136.40813370  energy(sigma->0) =     -136.45682188


--------------------------------------------------------------------------------------------------------




----------------------------------------- Iteration    1(  12)  ---------------------------------------


    POTLOK:  cpu time    0.07: real time    0.07
    SETDIJ:  cpu time    0.18: real time    0.18
     EDDAV:  cpu time    4.66: real time    4.66
       DOS:  cpu time    0.00: real time    0.00
    CHARGE:  cpu time    0.23: real time    0.23
    MIXING:  cpu time    0.00: real time    0.00
    --------------------------------------------
      LOOP:  cpu time    5.15: real time    5.27

 eigenvalue-minimisations  :  3216
 total energy-change (2. order) : 0.9968990E+00  (-0.5517983E+00)
 number of electron     620.0000335 magnetization 
 augmentation part      389.9653521 magnetization 

 DIPCOR: dipole corrections for dipol
 direction  3 min pos   229,
 dipolmoment           0.000000      0.000000      0.309301 electrons x Angstroem
 Tr[quadrupol]     -5703.985418

 energy correction for charged system         0.000000 eV
 dipol+quadrupol energy correction           -0.006727 eV
 added-field ion interaction          9.281338 eV  (added to PSCEN)


 Broyden mixing:
  rms(total) = 0.63493E+00    rms(broyden)= 0.63406E+00
  rms(prec ) = 0.77996E+00
  weight for this iteration     100.00

 eigenvalues of (default mixing * dielectric matrix)
  average eigenvalue GAMMA=   0.6089
  1.8015  0.6432  0.6432  0.4074  0.4074  0.2064  0.1536

 Free energy of the ion-electron system (eV)
  ---------------------------------------------------
  alpha Z        PSCENC =      1875.41798880
  Ewald energy   TEWEN  =    636823.28374851
  -Hartree energ DENC   =   -768650.98398042
  -exchange      EXHF   =         0.00000000
  -V(xc)+E(xc)   XCENC  =      3874.66200117
  PAW double counting   =    128871.38987745  -134428.92537460
  entropy T*S    EENTRO =        -0.09251852
  eigenvalues    EBANDS =    -17115.25205963
  atomic energy  EATOM  =    148614.99170617
  ---------------------------------------------------
  free energy    TOTEN  =      -135.50861106 eV

  energy without entropy =     -135.41609255  energy(sigma->0) =     -135.46235181


--------------------------------------------------------------------------------------------------------




----------------------------------------- Iteration    1(  13)  ---------------------------------------


    POTLOK:  cpu time    0.07: real time    0.07
    SETDIJ:  cpu time    0.18: real time    0.18
     EDDAV:  cpu time    4.65: real time    4.65
       DOS:  cpu time    0.00: real time    0.00
    CHARGE:  cpu time    0.23: real time    0.23
    MIXING:  cpu time    0.00: real time    0.00
    --------------------------------------------
      LOOP:  cpu time    5.14: real time    5.30

 eigenvalue-minimisations  :  3192
 total energy-change (2. order) : 0.2317672E+00  (-0.2073932E+00)
 number of electron     620.0000335 magnetization 
 augmentation part      389.8039802 magnetization 

 DIPCOR: dipole corrections for dipol
 direction  3 min pos   223,
 dipolmoment           0.000000      0.000000      0.185626 electrons x Angstroem
 Tr[quadrupol]     -5704.187094

 energy correction for charged system         0.000000 eV
 dipol+quadrupol energy correction           -0.002423 eV
 added-field ion interaction         -1.499167 eV  (added to PSCEN)


 Broyden mixing:
  rms(total) = 0.54333E+00    rms(broyden)= 0.54307E+00
  rms(prec ) = 0.63209E+00
  weight for this iteration     100.00

 eigenvalues of (default mixing * dielectric matrix)
  average eigenvalue GAMMA=   0.5807
  1.8325  0.6621  0.6621  0.4282  0.3521  0.3521  0.2030  0.1533

 Free energy of the ion-electron system (eV)
  ---------------------------------------------------
  alpha Z        PSCENC =      1864.64178703
  Ewald energy   TEWEN  =    636823.28374851
  -Hartree energ DENC   =   -768653.55415817
  -exchange      EXHF   =         0.00000000
  -V(xc)+E(xc)   XCENC  =      3873.23979287
  PAW double counting   =    129173.83290638  -134733.76818008
  entropy T*S    EENTRO =        -0.11858083
  eigenvalues    EBANDS =    -17097.82586577
  atomic energy  EATOM  =    148614.99170617
  ---------------------------------------------------
  free energy    TOTEN  =      -135.27684389 eV

  energy without entropy =     -135.15826306  energy(sigma->0) =     -135.21755347


--------------------------------------------------------------------------------------------------------




----------------------------------------- Iteration    1(  14)  ---------------------------------------


    POTLOK:  cpu time    0.07: real time    0.07
    SETDIJ:  cpu time    0.18: real time    0.18
     EDDAV:  cpu time    5.30: real time    5.31
       DOS:  cpu time    0.00: real time    0.00
    CHARGE:  cpu time    0.23: real time    0.23
    MIXING:  cpu time    0.00: real time    0.00
    --------------------------------------------
      LOOP:  cpu time    5.79: real time    5.84

 eigenvalue-minimisations  :  3824
 total energy-change (2. order) : 0.1225145E+00  (-0.3603349E-01)
 number of electron     620.0000335 magnetization 
 augmentation part      390.2604129 magnetization 

 DIPCOR: dipole corrections for dipol
 direction  3 min pos   220,
 dipolmoment           0.000000      0.000000      0.159285 electrons x Angstroem
 Tr[quadrupol]     -5704.159274

 energy correction for charged system         0.000000 eV
 dipol+quadrupol energy correction           -0.001784 eV
 added-field ion interaction         -4.319499 eV  (added to PSCEN)


 Broyden mixing:
  rms(total) = 0.32044E+00    rms(broyden)= 0.32035E+00
  rms(prec ) = 0.36483E+00
  weight for this iteration     100.00

 eigenvalues of (default mixing * dielectric matrix)
  average eigenvalue GAMMA=   0.6791
  1.6581  0.9375  0.9375  0.7096  0.7096  0.4014  0.4014  0.2038  0.1531

 Free energy of the ion-electron system (eV)
  ---------------------------------------------------
  alpha Z        PSCENC =      1861.82209472
  Ewald energy   TEWEN  =    636823.28374851
  -Hartree energ DENC   =   -768635.60483738
  -exchange      EXHF   =         0.00000000
  -V(xc)+E(xc)   XCENC  =      3872.75492425
  PAW double counting   =    129343.33615629  -134902.64290791
  entropy T*S    EENTRO =        -0.10707596
  eigenvalues    EBANDS =    -17112.98813804
  atomic energy  EATOM  =    148614.99170617
  ---------------------------------------------------
  free energy    TOTEN  =      -135.15432934 eV

  energy without entropy =     -135.04725338  energy(sigma->0) =     -135.10079136


--------------------------------------------------------------------------------------------------------




----------------------------------------- Iteration    1(  15)  ---------------------------------------


    POTLOK:  cpu time    0.07: real time    0.07
    SETDIJ:  cpu time    0.18: real time    0.18
     EDDAV:  cpu time    4.89: real time    4.89
       DOS:  cpu time    0.00: real time    0.00
    CHARGE:  cpu time    0.23: real time    0.23
    MIXING:  cpu time    0.00: real time    0.00
    --------------------------------------------
      LOOP:  cpu time    5.38: real time    5.45

 eigenvalue-minimisations  :  3408
 total energy-change (2. order) :-0.7240397E-01  (-0.1008941E+00)
 number of electron     620.0000335 magnetization 
 augmentation part      390.6935480 magnetization 

 DIPCOR: dipole corrections for dipol
 direction  3 min pos   221,
 dipolmoment           0.000000      0.000000      0.226120 electrons x Angstroem
 Tr[quadrupol]     -5704.112494

 energy correction for charged system         0.000000 eV
 dipol+quadrupol energy correction           -0.003595 eV
 added-field ion interaction         -4.696704 eV  (added to PSCEN)


 Broyden mixing:
  rms(total) = 0.37114E+00    rms(broyden)= 0.37090E+00
  rms(prec ) = 0.45251E+00
  weight for this iteration     100.00

 eigenvalues of (default mixing * dielectric matrix)
  average eigenvalue GAMMA=   0.7740
  1.9465  1.9465  0.7921  0.7921  0.7019  0.4429  0.4429  0.3182  0.2035  0.1532

 Free energy of the ion-electron system (eV)
  ---------------------------------------------------
  alpha Z        PSCENC =      1861.44307808
  Ewald energy   TEWEN  =    636823.28374851
  -Hartree energ DENC   =   -768632.14560809
  -exchange      EXHF   =         0.00000000
  -V(xc)+E(xc)   XCENC  =      3872.72317053
  PAW double counting   =    129668.62604331  -135224.42340562
  entropy T*S    EENTRO =        -0.08883934
  eigenvalues    EBANDS =    -17119.63662687
  atomic energy  EATOM  =    148614.99170617
  ---------------------------------------------------
  free energy    TOTEN  =      -135.22673331 eV

  energy without entropy =     -135.13789397  energy(sigma->0) =     -135.18231364


--------------------------------------------------------------------------------------------------------




----------------------------------------- Iteration    1(  16)  ---------------------------------------


    POTLOK:  cpu time    0.07: real time    0.07
    SETDIJ:  cpu time    0.18: real time    0.18
     EDDAV:  cpu time    4.71: real time    4.71
       DOS:  cpu time    0.00: real time    0.00
    CHARGE:  cpu time    0.23: real time    0.23
    MIXING:  cpu time    0.00: real time    0.00
    --------------------------------------------
      LOOP:  cpu time    5.19: real time    5.41

 eigenvalue-minimisations  :  3232
 total energy-change (2. order) : 0.5410749E-01  (-0.4920556E-01)
 number of electron     620.0000336 magnetization 
 augmentation part      390.4604307 magnetization 

 DIPCOR: dipole corrections for dipol
 direction  3 min pos   235,
 dipolmoment           0.000000      0.000000      0.178449 electrons x Angstroem
 Tr[quadrupol]     -5705.423704

 energy correction for charged system         0.000000 eV
 dipol+quadrupol energy correction           -0.002239 eV
 added-field ion interaction         12.150771 eV  (added to PSCEN)


 Broyden mixing:
  rms(total) = 0.29812E+00    rms(broyden)= 0.29795E+00
  rms(prec ) = 0.32783E+00
  weight for this iteration     100.00

 eigenvalues of (default mixing * dielectric matrix)
  average eigenvalue GAMMA=   0.7768
  2.4946  1.8324  0.7213  0.7213  0.6148  0.6148  0.4099  0.4099  0.3687  0.2037
  0.1533

 Free energy of the ion-electron system (eV)
  ---------------------------------------------------
  alpha Z        PSCENC =      1878.29190957
  Ewald energy   TEWEN  =    636823.28374851
  -Hartree energ DENC   =   -768700.85512454
  -exchange      EXHF   =         0.00000000
  -V(xc)+E(xc)   XCENC  =      3872.57765995
  PAW double counting   =    130169.60249569  -135722.56687518
  entropy T*S    EENTRO =        -0.11075560
  eigenvalues    EBANDS =    -17070.38739041
  atomic energy  EATOM  =    148614.99170617
  ---------------------------------------------------
  free energy    TOTEN  =      -135.17262582 eV

  energy without entropy =     -135.06187023  energy(sigma->0) =     -135.11724802


--------------------------------------------------------------------------------------------------------




----------------------------------------- Iteration    1(  17)  ---------------------------------------


    POTLOK:  cpu time    0.07: real time    0.07
    SETDIJ:  cpu time    0.18: real time    0.18
     EDDAV:  cpu time    4.72: real time    4.73
       DOS:  cpu time    0.00: real time    0.00
    CHARGE:  cpu time    0.23: real time    0.23
    MIXING:  cpu time    0.00: real time    0.00
    --------------------------------------------
      LOOP:  cpu time    5.21: real time    5.39

 eigenvalue-minimisations  :  3256
 total energy-change (2. order) : 0.4720010E-01  (-0.9372698E-02)
 number of electron     620.0000336 magnetization 
 augmentation part      390.6165599 magnetization 

 DIPCOR: dipole corrections for dipol
 direction  3 min pos   241,
 dipolmoment           0.000000      0.000000      0.170438 electrons x Angstroem
 Tr[quadrupol]     -5705.768240

 energy correction for charged system         0.000000 eV
 dipol+quadrupol energy correction           -0.002043 eV
 added-field ion interaction         18.096250 eV  (added to PSCEN)


 Broyden mixing:
  rms(total) = 0.18853E+00    rms(broyden)= 0.18850E+00
  rms(prec ) = 0.22081E+00
  weight for this iteration     100.00

 eigenvalues of (default mixing * dielectric matrix)
  average eigenvalue GAMMA=   0.7540
  2.5782  1.7082  0.7112  0.7112  0.6752  0.6752  0.4413  0.4413  0.4352  0.3141
  0.2036  0.1533

 Free energy of the ion-electron system (eV)
  ---------------------------------------------------
  alpha Z        PSCENC =      1884.23758497
  Ewald energy   TEWEN  =    636823.28374851
  -Hartree energ DENC   =   -768702.59019459
  -exchange      EXHF   =         0.00000000
  -V(xc)+E(xc)   XCENC  =      3872.17235623
  PAW double counting   =    130325.95190651  -135878.54798576
  entropy T*S    EENTRO =        -0.10819445
  eigenvalues    EBANDS =    -17074.51635331
  atomic energy  EATOM  =    148614.99170617
  ---------------------------------------------------
  free energy    TOTEN  =      -135.12542572 eV

  energy without entropy =     -135.01723127  energy(sigma->0) =     -135.07132850


--------------------------------------------------------------------------------------------------------




----------------------------------------- Iteration    1(  18)  ---------------------------------------


    POTLOK:  cpu time    0.07: real time    0.07
    SETDIJ:  cpu time    0.18: real time    0.18
     EDDAV:  cpu time    4.72: real time    4.73
       DOS:  cpu time    0.00: real time    0.00
    CHARGE:  cpu time    0.23: real time    0.23
    MIXING:  cpu time    0.00: real time    0.00
    --------------------------------------------
      LOOP:  cpu time    5.21: real time    5.29

 eigenvalue-minimisations  :  3248
 total energy-change (2. order) : 0.2043571E-01  (-0.1006667E-01)
 number of electron     620.0000336 magnetization 
 augmentation part      390.8349101 magnetization 

 DIPCOR: dipole corrections for dipol
 direction  3 min pos   244,
 dipolmoment           0.000000      0.000000      0.182915 electrons x Angstroem
 Tr[quadrupol]     -5705.898617

 energy correction for charged system         0.000000 eV
 dipol+quadrupol energy correction           -0.002353 eV
 added-field ion interaction         22.904051 eV  (added to PSCEN)


 Broyden mixing:
  rms(total) = 0.68242E-01    rms(broyden)= 0.68075E-01
  rms(prec ) = 0.71195E-01
  weight for this iteration     100.00

 eigenvalues of (default mixing * dielectric matrix)
  average eigenvalue GAMMA=   0.7566
  2.6489  1.6739  0.7945  0.7945  0.7145  0.7145  0.4703  0.4703  0.4323  0.4323
  0.3334  0.2036  0.1533

 Free energy of the ion-electron system (eV)
  ---------------------------------------------------
  alpha Z        PSCENC =      1889.04507586
  Ewald energy   TEWEN  =    636823.28374851
  -Hartree energ DENC   =   -768698.84070086
  -exchange      EXHF   =         0.00000000
  -V(xc)+E(xc)   XCENC  =      3872.03890197
  PAW double counting   =    130322.97558296  -135875.49709311
  entropy T*S    EENTRO =        -0.10327501
  eigenvalues    EBANDS =    -17082.99893651
  atomic energy  EATOM  =    148614.99170617
  ---------------------------------------------------
  free energy    TOTEN  =      -135.10499001 eV

  energy without entropy =     -135.00171499  energy(sigma->0) =     -135.05335250


--------------------------------------------------------------------------------------------------------




----------------------------------------- Iteration    1(  19)  ---------------------------------------


    POTLOK:  cpu time    0.07: real time    0.07
    SETDIJ:  cpu time    0.18: real time    0.18
     EDDAV:  cpu time    5.27: real time    5.27
       DOS:  cpu time    0.00: real time    0.00
    CHARGE:  cpu time    0.23: real time    0.23
    MIXING:  cpu time    0.00: real time    0.00
    --------------------------------------------
      LOOP:  cpu time    5.76: real time    5.89

 eigenvalue-minimisations  :  3776
 total energy-change (2. order) :-0.6680624E-02  (-0.2280031E-02)
 number of electron     620.0000336 magnetization 
 augmentation part      390.7264454 magnetization 

 DIPCOR: dipole corrections for dipol
 direction  3 min pos   245,
 dipolmoment           0.000000      0.000000      0.174179 electrons x Angstroem
 Tr[quadrupol]     -5705.976176

 energy correction for charged system         0.000000 eV
 dipol+quadrupol energy correction           -0.002133 eV
 added-field ion interaction         22.915674 eV  (added to PSCEN)


 Broyden mixing:
  rms(total) = 0.94326E-01    rms(broyden)= 0.94310E-01
  rms(prec ) = 0.12027E+00
  weight for this iteration     100.00

 eigenvalues of (default mixing * dielectric matrix)
  average eigenvalue GAMMA=   0.7617
  2.6053  1.6701  0.8267  0.8267  0.7414  0.7414  0.6673  0.6673  0.4175  0.4175
  0.2036  0.1533  0.4040  0.3212

 Free energy of the ion-electron system (eV)
  ---------------------------------------------------
  alpha Z        PSCENC =      1889.05691844
  Ewald energy   TEWEN  =    636823.28374851
  -Hartree energ DENC   =   -768707.81322183
  -exchange      EXHF   =         0.00000000
  -V(xc)+E(xc)   XCENC  =      3872.18236729
  PAW double counting   =    130295.70411453  -135849.21071098
  entropy T*S    EENTRO =        -0.10566768
  eigenvalues    EBANDS =    -17073.20092509
  atomic energy  EATOM  =    148614.99170617
  ---------------------------------------------------
  free energy    TOTEN  =      -135.11167063 eV

  energy without entropy =     -135.00600296  energy(sigma->0) =     -135.05883679


--------------------------------------------------------------------------------------------------------




----------------------------------------- Iteration    1(  20)  ---------------------------------------


    POTLOK:  cpu time    0.07: real time    0.07
    SETDIJ:  cpu time    0.18: real time    0.18
     EDDAV:  cpu time    4.67: real time    4.68
       DOS:  cpu time    0.00: real time    0.00
    CHARGE:  cpu time    0.23: real time    0.23
    MIXING:  cpu time    0.00: real time    0.00
    --------------------------------------------
      LOOP:  cpu time    5.16: real time    5.27

 eigenvalue-minimisations  :  3216
 total energy-change (2. order) :-0.1284870E-02  (-0.5562757E-03)
 number of electron     620.0000336 magnetization 
 augmentation part      390.6748217 magnetization 

 DIPCOR: dipole corrections for dipol
 direction  3 min pos   246,
 dipolmoment           0.000000      0.000000      0.175066 electrons x Angstroem
 Tr[quadrupol]     -5706.048082

 energy correction for charged system         0.000000 eV
 dipol+quadrupol energy correction           -0.002155 eV
 added-field ion interaction         24.143548 eV  (added to PSCEN)


 Broyden mixing:
  rms(total) = 0.10804E+00    rms(broyden)= 0.10804E+00
  rms(prec ) = 0.13565E+00
  weight for this iteration     100.00

 eigenvalues of (default mixing * dielectric matrix)
  average eigenvalue GAMMA=   0.7613
  2.5810  1.6843  1.0044  1.0044  0.7022  0.7022  0.7458  0.7458  0.1533  0.2036
  0.4087  0.4087  0.3668  0.3668  0.3419

 Free energy of the ion-electron system (eV)
  ---------------------------------------------------
  alpha Z        PSCENC =      1890.28477033
  Ewald energy   TEWEN  =    636823.28374851
  -Hartree energ DENC   =   -768712.96895614
  -exchange      EXHF   =         0.00000000
  -V(xc)+E(xc)   XCENC  =      3872.27107262
  PAW double counting   =    130286.36597072  -135840.39088479
  entropy T*S    EENTRO =        -0.10629258
  eigenvalues    EBANDS =    -17068.84409034
  atomic energy  EATOM  =    148614.99170617
  ---------------------------------------------------
  free energy    TOTEN  =      -135.11295550 eV

  energy without entropy =     -135.00666292  energy(sigma->0) =     -135.05980921


--------------------------------------------------------------------------------------------------------




----------------------------------------- Iteration    1(  21)  ---------------------------------------


    POTLOK:  cpu time    0.07: real time    0.07
    SETDIJ:  cpu time    0.18: real time    0.18
     EDDAV:  cpu time    4.60: real time    4.61
       DOS:  cpu time    0.00: real time    0.00
    CHARGE:  cpu time    0.23: real time    0.23
    MIXING:  cpu time    0.00: real time    0.00
    --------------------------------------------
      LOOP:  cpu time    5.09: real time    5.28

 eigenvalue-minimisations  :  3136
 total energy-change (2. order) : 0.9749720E-03  (-0.6354029E-04)
 number of electron     620.0000336 magnetization 
 augmentation part      390.6710831 magnetization 

 DIPCOR: dipole corrections for dipol
 direction  3 min pos   246,
 dipolmoment           0.000000      0.000000      0.178052 electrons x Angstroem
 Tr[quadrupol]     -5706.088601

 energy correction for charged system         0.000000 eV
 dipol+quadrupol energy correction           -0.002229 eV
 added-field ion interaction         24.555369 eV  (added to PSCEN)


 Broyden mixing:
  rms(total) = 0.10397E+00    rms(broyden)= 0.10397E+00
  rms(prec ) = 0.12966E+00
  weight for this iteration     100.00

 eigenvalues of (default mixing * dielectric matrix)
  average eigenvalue GAMMA=   0.8489
  2.7142  1.6450  1.5652  1.5652  0.9919  0.7190  0.7190  0.7946  0.4881  0.4881
  0.4363  0.4363  0.1533  0.2036  0.3311  0.3311

 Free energy of the ion-electron system (eV)
  ---------------------------------------------------
  alpha Z        PSCENC =      1890.69651750
  Ewald energy   TEWEN  =    636823.28374851
  -Hartree energ DENC   =   -768715.46290838
  -exchange      EXHF   =         0.00000000
  -V(xc)+E(xc)   XCENC  =      3872.28460164
  PAW double counting   =    130286.22538412  -135840.37320426
  entropy T*S    EENTRO =        -0.10611013
  eigenvalues    EBANDS =    -17066.65171570
  atomic energy  EATOM  =    148614.99170617
  ---------------------------------------------------
  free energy    TOTEN  =      -135.11198053 eV

  energy without entropy =     -135.00587040  energy(sigma->0) =     -135.05892546


--------------------------------------------------------------------------------------------------------




----------------------------------------- Iteration    1(  22)  ---------------------------------------


    POTLOK:  cpu time    0.07: real time    0.07
    SETDIJ:  cpu time    0.18: real time    0.18
     EDDAV:  cpu time    4.67: real time    4.67
       DOS:  cpu time    0.00: real time    0.00
    CHARGE:  cpu time    0.23: real time    0.23
    MIXING:  cpu time    0.00: real time    0.00
    --------------------------------------------
      LOOP:  cpu time    5.16: real time    5.25

 eigenvalue-minimisations  :  3216
 total energy-change (2. order) : 0.6601544E-02  (-0.1634445E-02)
 number of electron     620.0000336 magnetization 
 augmentation part      390.7523078 magnetization 

 DIPCOR: dipole corrections for dipol
 direction  3 min pos   245,
 dipolmoment           0.000000      0.000000      0.192774 electrons x Angstroem
 Tr[quadrupol]     -5706.230613

 energy correction for charged system         0.000000 eV
 dipol+quadrupol energy correction           -0.002613 eV
 added-field ion interaction         25.362171 eV  (added to PSCEN)


 Broyden mixing:
  rms(total) = 0.41892E-01    rms(broyden)= 0.41817E-01
  rms(prec ) = 0.50084E-01
  weight for this iteration     100.00

 eigenvalues of (default mixing * dielectric matrix)
  average eigenvalue GAMMA=   0.8534
  2.3667  2.3667  1.6162  1.6162  0.8417  0.8417  0.7227  0.7227  0.1533  0.2036
  0.5348  0.5348  0.4319  0.4319  0.4248  0.3245  0.3739

 Free energy of the ion-electron system (eV)
  ---------------------------------------------------
  alpha Z        PSCENC =      1891.50293531
  Ewald energy   TEWEN  =    636823.28374851
  -Hartree energ DENC   =   -768722.10087287
  -exchange      EXHF   =         0.00000000
  -V(xc)+E(xc)   XCENC  =      3872.21566885
[...]
  0.032   0.003   0.000  -0.008  -0.001   0.000   0.000 -12.237
 -0.002   0.029  -0.004   0.001  -0.008   0.001  -0.004   0.000
  0.000   0.005   0.032   0.000  -0.001  -0.008  -0.003   0.004
 -0.005   0.000   0.006   0.001   0.000  -0.001   0.000  -0.002
 -0.001  -0.007  -0.001   0.000   0.002   0.000  -0.001   0.000
 -0.002  -0.015  -0.003   0.000   0.003   0.000  -0.002   0.000
 total augmentation occupancy for first ion, spin component:           1
  1.997   0.000   0.000  -0.017   0.000   0.000  -0.001  -0.008   0.000   0.000   0.000   0.000   0.007   0.000   0.000   0.000
  0.000   1.997   0.000   0.000  -0.016   0.000   0.000   0.000  -0.010   0.000   0.000   0.000   0.000   0.009   0.000   0.000
  0.000   0.000   1.997   0.000   0.000  -0.016  -0.001   0.000   0.000  -0.008  -0.001   0.001   0.000   0.000   0.007   0.000
 -0.017   0.000   0.000   0.113  -0.001   0.000   0.001  -0.113   0.005   0.003  -0.012  -0.001   0.103  -0.003  -0.002   0.016
  0.000  -0.016   0.000  -0.001   0.067  -0.001   0.002   0.000  -0.129   0.000   0.001  -0.001   0.000   0.146   0.000  -0.001
  0.000   0.000  -0.016   0.000  -0.001   0.113  -0.011   0.003   0.008  -0.109   0.001   0.015  -0.002  -0.005   0.101  -0.001
 -0.001   0.000  -0.001   0.001   0.002  -0.011   3.648  -0.004  -0.013  -0.086  -0.004  -1.412   0.003   0.009   0.032   0.003
 -0.008   0.000   0.000  -0.113   0.000   0.003  -0.004   3.628   0.010   0.026  -0.081   0.003  -1.231  -0.007  -0.018   0.029
  0.000  -0.010   0.000   0.005  -0.129   0.008  -0.013   0.010   3.862   0.018  -0.007   0.009  -0.007  -1.486  -0.011   0.005
  0.000   0.000  -0.008   0.003   0.000  -0.109  -0.086   0.026   0.018   3.658  -0.004   0.032  -0.018  -0.011  -1.252   0.003
  0.000   0.000  -0.001  -0.012   0.001   0.001  -0.004  -0.081  -0.007  -0.004   3.652   0.003   0.029   0.005   0.003  -1.415
  0.000   0.000   0.001  -0.001  -0.001   0.015  -1.412   0.003   0.009   0.032   0.003   1.098  -0.001  -0.007   0.011  -0.002
  0.007   0.000   0.000   0.103   0.000  -0.002   0.003  -1.231  -0.007  -0.018   0.029  -0.001   0.793   0.004   0.013   0.012
  0.000   0.009   0.000  -0.003   0.146  -0.005   0.009  -0.007  -1.486  -0.011   0.005  -0.007   0.004   1.067   0.007  -0.004
  0.000   0.000   0.007  -0.002   0.000   0.101   0.032  -0.018  -0.011  -1.252   0.003   0.011   0.013   0.007   0.807  -0.001
  0.000   0.000   0.000   0.016  -0.001  -0.001   0.003   0.029   0.005   0.003  -1.415  -0.002   0.012  -0.004  -0.001   1.100
  0.003   0.025   0.005   0.002   0.065   0.003   0.011   0.000   0.488   0.000   0.006  -0.002   0.000  -0.383   0.000  -0.001
 -0.001  -0.012  -0.002   0.000  -0.006   0.000  -0.006   0.001  -0.040   0.001  -0.003   0.001   0.000   0.014   0.000   0.001


------------------------ aborting loop because EDIFF is reached ----------------------------------------


 


 total charge     
 
# of ion     s       p       d       tot
----------------------------------------
  1        0.314   6.159   8.874  15.348
  2        0.312   6.162   8.870  15.344
  3        0.312   6.159   8.872  15.344
  4        0.313   6.159   8.875  15.347
  5        0.312   6.159   8.878  15.349
  6        0.310   6.160   8.870  15.340
  7        0.310   6.160   8.877  15.347
  8        0.316   6.159   8.876  15.351
  9        0.313   6.160   8.875  15.347
 10        0.305   6.206   8.867  15.378
 11        0.297   6.208   8.869  15.374
 12        0.297   6.207   8.872  15.375
 13        0.300   6.209   8.863  15.372
 14        0.305   6.206   8.865  15.376
 15        0.299   6.207   8.870  15.376
 16        0.298   6.209   8.866  15.373
 17        0.298   6.209   8.869  15.376
 18        0.312   6.206   8.865  15.382
 19        0.301   6.206   8.863  15.370
 20        0.299   6.199   8.865  15.362
 21        0.299   6.205   8.869  15.374
 22        0.298   6.204   8.875  15.377
 23        0.299   6.201   8.866  15.366
 24        0.307   6.211   8.857  15.375
 25        0.304   6.209   8.858  15.371
 26        0.306   6.205   8.866  15.377
 27        0.307   6.208   8.861  15.377
 28        0.344   6.238   8.812  15.394
 29        0.346   6.239   8.810  15.395
 30        0.302   6.159   8.871  15.332
 31        0.342   6.238   8.818  15.397
 32        0.326   6.229   8.819  15.373
 33        0.321   6.227   8.799  15.346
 34        0.300   6.166   8.904  15.371
 35        0.334   6.235   8.837  15.406
 36        0.301   6.163   8.895  15.359
 37        0.962   1.283   0.000   2.245
 38        0.960   1.300   0.000   2.260
------------------------------------------------
tot       13.082 225.627 319.018 557.726
 
    CHARGE:  cpu time    0.23: real time    0.23
    FORLOC:  cpu time    0.01: real time    0.01
    FORNL :  cpu time    2.20: real time    2.21
    STRESS:  cpu time    2.09: real time    2.10
    FORCOR:  cpu time    0.08: real time    0.08
    FORHAR:  cpu time    0.03: real time    0.03
    MIXING:  cpu time    0.00: real time    0.00
    OFIELD:  cpu time    0.00: real time    0.00

 ---------------------------------------------------------------------------------------------

         DFTD3 V3.0 Rev 1        
 Edisp (eV)  -13.61733

 E6    (eV) :    -5.3510
 E8    (eV) :    -8.2663
 % E8        : 60.70
    FORVDW:  cpu time    0.16: real time    0.16

  FORCE on cell =-STRESS in cart. coord.  units (eV):
  Direction    XX          YY          ZZ          XY          YZ          ZX
  --------------------------------------------------------------------------------------
  Alpha Z  1866.14338  1866.14338  1866.14338
  Ewald  702349.19714702349.19714************     0.00000     0.00000     0.00000
  Hartree740222.89093740222.89066************     0.00023    -0.00007    -0.00012
  E(xc)   -4839.62275 -4839.62239 -4845.30280    -0.00031     0.00001     0.00001
  Local  ************************************     0.02487     0.00010     0.00018
  n-local -3156.36537 -3149.46065 -3161.69974     2.78429    -0.28048     0.06119
  augment  6754.54571  6754.57218  6777.13625    -0.02292     0.00055     0.00095
  Kinetic  7662.79871  7667.52909  7698.10303     0.92807     3.12241    -1.42520
  Fock        0.00000     0.00000     0.00000     0.00000     0.00000     0.00000
  vdW       -17.37056   -17.37056    -9.90021     0.00000     0.00000     0.00000
  -------------------------------------------------------------------------------------
  Total      -4.24620    -4.24620    -3.40743     0.00000     0.00000     0.00000
  in kB      -5.28712    -5.28712    -4.24273     0.00000     0.00000     0.00000
  external pressure =       -4.94 kB  Pullay stress =        0.00 kB


 VOLUME and BASIS-vectors are now :
 -----------------------------------------------------------------------------
  energy-cutoff  :      400.00
  volume of cell :     1286.74
      direct lattice vectors                 reciprocal lattice vectors
     7.529541871  0.000000000  0.000000000     0.132810205 -0.076678008  0.000000000
     3.764770935  6.520774539  0.000000000     0.000000000  0.153356015  0.000000000
     0.000000000  0.000000000 26.207422806     0.000000000  0.000000000  0.038157129

  length of vectors
     7.529541871  7.529541871 26.207422806     0.153356015  0.153356015  0.038157129


 FORCES acting on ions
    electron-ion (+dipol)            ewald-force                    non-local-force                 convergence-correction
 -----------------------------------------------------------------------------------------------
   0.470E+00 0.271E+00 0.993E+04   0.301E-01 0.174E-01 -.992E+04   -.466E+00 -.269E+00 -.227E+01   -.650E-05 -.375E-05 0.252E-02
   0.279E-03 -.542E+00 0.993E+04   0.439E-11 -.348E-01 -.992E+04   0.139E-16 0.538E+00 -.227E+01   0.176E-06 0.728E-05 0.252E-02
   -.178E+01 0.103E+01 0.993E+04   0.144E+01 -.832E+00 -.992E+04   0.303E+00 -.175E+00 -.218E+01   -.138E-03 0.793E-04 0.253E-02
   -.470E+00 0.271E+00 0.993E+04   -.301E-01 0.174E-01 -.992E+04   0.466E+00 -.269E+00 -.227E+01   0.639E-05 -.349E-05 0.252E-02
   -.110E+01 -.636E+00 0.992E+04   0.127E+01 0.733E+00 -.992E+04   -.155E+00 -.895E-01 -.234E+01   0.885E-04 0.511E-04 0.231E-02
   0.270E-03 0.127E+01 0.992E+04   -.152E-09 -.147E+01 -.992E+04   0.121E-16 0.179E+00 -.234E+01   0.140E-06 -.103E-03 0.231E-02
   -.543E-03 -.205E+01 0.993E+04   0.146E-09 0.166E+01 -.992E+04   0.208E-16 0.350E+00 -.218E+01   -.989E-07 -.159E-03 0.253E-02
   0.110E+01 -.635E+00 0.992E+04   -.127E+01 0.733E+00 -.992E+04   0.155E+00 -.895E-01 -.234E+01   -.887E-04 0.514E-04 0.231E-02
   0.178E+01 0.103E+01 0.993E+04   -.144E+01 -.832E+00 -.992E+04   -.303E+00 -.175E+00 -.218E+01   0.138E-03 0.795E-04 0.253E-02
   0.387E-03 0.223E-03 0.342E+04   0.123E-09 0.700E-09 -.342E+04   -.434E-17 0.000E+00 -.221E+01   0.262E-06 0.151E-06 0.708E-02
   -.128E+02 -.568E+00 0.341E+04   0.129E+02 0.682E+00 -.341E+04   -.119E-01 -.906E-01 -.861E+00   -.388E-02 0.175E-02 0.908E-03
   -.593E+01 0.114E+02 0.341E+04   0.585E+01 -.115E+02 -.341E+04   0.725E-01 0.556E-01 -.861E+00   -.346E-02 0.248E-02 0.908E-03
   -.691E+01 -.108E+02 0.341E+04   0.703E+01 0.108E+02 -.341E+04   -.844E-01 0.350E-01 -.861E+00   -.419E-03 -.423E-02 0.908E-03
   0.611E-04 0.353E-04 0.340E+04   -.186E-10 -.324E-09 -.340E+04   -.103E-17 0.266E-17 -.169E+01   -.467E-06 -.270E-06 -.100E-01
   0.593E+01 0.114E+02 0.341E+04   -.585E+01 -.115E+02 -.341E+04   -.725E-01 0.556E-01 -.861E+00   0.346E-02 0.248E-02 0.908E-03
   0.691E+01 -.108E+02 0.341E+04   -.703E+01 0.108E+02 -.341E+04   0.844E-01 0.350E-01 -.861E+00   0.419E-03 -.423E-02 0.908E-03
   0.128E+02 -.568E+00 0.341E+04   -.129E+02 0.682E+00 -.341E+04   0.119E-01 -.906E-01 -.861E+00   0.388E-02 0.175E-02 0.908E-03
   -.113E-03 -.653E-04 0.343E+04   -.460E-10 -.302E-09 -.343E+04   0.000E+00 0.347E-17 -.164E+01   0.170E-06 0.981E-07 0.378E-02
   -.131E+02 -.756E+01 -.310E+04   0.139E+02 0.800E+01 0.310E+04   -.745E+00 -.430E+00 0.150E+01   -.189E-01 -.109E-01 0.174E-01
   -.242E+02 0.140E+02 -.319E+04   0.241E+02 -.139E+02 0.319E+04   0.542E-01 -.313E-01 0.183E+01   -.192E-01 0.111E-01 0.231E-01
   -.552E-03 0.151E+02 -.310E+04   0.127E-08 -.160E+02 0.310E+04   0.278E-16 0.860E+00 0.150E+01   -.250E-05 0.219E-01 0.174E-01
   0.374E-04 -.279E+02 -.319E+04   -.131E-08 0.279E+02 0.319E+04   0.520E-17 0.626E-01 0.183E+01   0.156E-06 -.222E-01 0.231E-01
   0.242E+02 0.140E+02 -.319E+04   -.241E+02 -.139E+02 0.319E+04   -.542E-01 -.313E-01 0.183E+01   0.192E-01 0.111E-01 0.231E-01
   0.110E+02 -.632E+01 -.305E+04   -.119E+02 0.690E+01 0.305E+04   0.101E+01 -.581E+00 0.347E+00   -.654E-02 0.377E-02 0.830E-02
   0.131E+02 -.756E+01 -.310E+04   -.139E+02 0.800E+01 0.310E+04   0.745E+00 -.430E+00 0.150E+01   0.189E-01 -.109E-01 0.174E-01
   0.331E-03 0.126E+02 -.305E+04   0.411E-09 -.138E+02 0.305E+04   0.000E+00 0.116E+01 0.347E+00   0.933E-06 -.755E-02 0.830E-02
   -.110E+02 -.632E+01 -.305E+04   0.119E+02 0.690E+01 0.305E+04   -.101E+01 -.581E+00 0.347E+00   0.654E-02 0.377E-02 0.830E-02
   0.810E+02 0.468E+02 -.949E+04   -.814E+02 -.470E+02 0.949E+04   0.444E+00 0.257E+00 -.205E+01   -.829E-02 -.479E-02 -.237E-01
   -.103E-03 -.935E+02 -.949E+04   0.119E-07 0.940E+02 0.949E+04   0.694E-17 -.513E+00 -.205E+01   -.226E-05 0.958E-02 -.237E-01
   0.677E+01 -.391E+01 -.959E+04   -.871E+01 0.503E+01 0.959E+04   0.195E+01 -.112E+01 0.386E+01   0.138E-01 -.795E-02 -.450E-02
   -.810E+02 0.468E+02 -.949E+04   0.814E+02 -.470E+02 0.949E+04   -.444E+00 0.257E+00 -.205E+01   0.829E-02 -.479E-02 -.237E-01
   0.353E+02 0.204E+02 -.966E+04   -.337E+02 -.194E+02 0.966E+04   -.161E+01 -.932E+00 -.137E+01   0.117E-01 0.674E-02 -.143E-02
   0.599E-03 -.407E+02 -.966E+04   0.172E-08 0.389E+02 0.966E+04   0.278E-16 0.186E+01 -.137E+01   -.864E-06 -.135E-01 -.143E-02
   0.274E-03 0.782E+01 -.959E+04   -.454E-08 -.101E+02 0.959E+04   -.278E-16 0.225E+01 0.386E+01   0.656E-06 0.159E-01 -.450E-02
   -.353E+02 0.204E+02 -.966E+04   0.337E+02 -.194E+02 0.966E+04   0.161E+01 -.932E+00 -.137E+01   -.117E-01 0.674E-02 -.143E-02
   -.677E+01 -.391E+01 -.959E+04   0.871E+01 0.503E+01 0.959E+04   -.195E+01 -.112E+01 0.386E+01   -.138E-01 -.795E-02 -.451E-02
   -.148E-04 -.852E-05 -.289E+04   0.159E-07 0.566E-07 0.290E+04   -.243E-16 -.347E-17 -.836E+01   -.584E-07 -.337E-07 0.201E-02
   0.352E-04 0.203E-04 -.289E+04   -.525E-09 -.188E-08 0.290E+04   -.130E-17 0.000E+00 -.794E+01   -.131E-06 -.757E-07 -.105E-02
 -----------------------------------------------------------------------------------------------
   0.280E-02 0.162E-02 0.348E+02   -.186E-12 -.136E-12 0.500E-11   -.256E-16 0.219E-15 -.350E+02   0.210E-06 0.121E-06 0.867E-01
 
 
 POSITION                                       TOTAL-FORCE (eV/Angst)
 -----------------------------------------------------------------------------------
      0.00000      0.00000      0.00000         0.033931      0.019590     -0.200641
      1.25492      2.17359      0.00000         0.000000     -0.039181     -0.200641
      2.50985      4.34718      0.00000        -0.032724      0.018893     -0.151340
      2.50985      0.00000      0.00000        -0.033931      0.019590     -0.200641
      3.76477      2.17359      0.00000         0.014783      0.008535     -0.182670
      5.01969      4.34718      0.00000         0.000000     -0.017071     -0.182670
      5.01969      0.00000      0.00000         0.000000     -0.037786     -0.151340
      6.27462      2.17359      0.00000        -0.014783      0.008535     -0.182670
      7.52954      4.34718      0.00000         0.032724      0.018893     -0.151340
      1.25492      0.72453      2.04928         0.000000      0.000000      0.075700
      2.50985      2.89812      2.04928         0.035065      0.024045      0.222687
      3.76477      5.07171      2.04928        -0.003291     -0.042390      0.222687
      3.76477      0.72453      2.04928         0.038356      0.018345      0.222687
      5.01969      2.89812      2.04928         0.000000      0.000000      0.170017
      6.27462      5.07171      2.04928         0.003291     -0.042390      0.222687
      6.27462      0.72453      2.04928        -0.038356      0.018345      0.222687
      7.52954      2.89812      2.04928        -0.035065      0.024045      0.222687
      8.78447      5.07171      2.04928         0.000000      0.000000      0.045980
      2.51110      1.44979      4.10627        -0.005755     -0.003323      0.005043
      3.77637      3.61596      4.12805        -0.004684      0.002704      0.003882
      5.01969      5.79479      4.10627         0.000000      0.006645      0.005043
      5.01969      1.46245      4.12805         0.000000     -0.005409      0.003882
      6.26302      3.61596      4.12805         0.004684      0.002704      0.003882
      7.53240      5.79459      4.09937        -0.000550      0.000318     -0.003363
      7.52828      1.44979      4.10627         0.005755     -0.003323      0.005043
      8.78447      3.62596      4.09937         0.000000     -0.000635     -0.003363
     10.03653      5.79459      4.09937         0.000550      0.000318     -0.003363
     11.24661      6.49323      6.19700         0.008110      0.004683     -0.001575
      8.78447      2.22867      6.19700         0.000000     -0.009365     -0.001575
      2.50116      4.35220      6.17723         0.002310     -0.001334      0.000258
      6.32232      6.49323      6.19700        -0.008110      0.004683     -0.001575
      3.71006      2.14201      6.28795        -0.000999     -0.000577     -0.007063
      5.01969      4.41036      6.28795         0.000000      0.001154     -0.007063
      5.01969     -0.01003      6.17723         0.000000      0.002667      0.000258
      6.32933      2.14201      6.28795         0.000999     -0.000577     -0.007063
      7.53823      4.35220      6.17723        -0.002310     -0.001334      0.000258
      1.25492      0.72453      7.27842         0.000000      0.000000     -0.011539
      5.01969      2.89812      7.33034         0.000000      0.000000     -0.003878
 -----------------------------------------------------------------------------------
    total drift:                                0.002804      0.001619     -0.091258


--------------------------------------------------------------------------------------------------------



  FREE ENERGIE OF THE ION-ELECTRON SYSTEM (eV)
  ---------------------------------------------------
  free  energy   TOTEN  =      -152.47219390 eV

  energy  without entropy=     -152.38752721  energy(sigma->0) =     -152.42986055
 
 d Force =-0.4565621E-07[-0.207E-05, 0.198E-05]  d Energy = 0.2216393E-04-0.222E-04
 d Force = 0.2704723E+01[ 0.270E+01, 0.270E+01]  d Ewald  = 0.2704723E+01 0.442E-08


--------------------------------------------------------------------------------------------------------


    POTLOK:  cpu time    0.26: real time    0.26


--------------------------------------------------------------------------------------------------------




--------------------------------------------------------------------------------------------------------


  
 reached required accuracy - stopping structural energy minimisation
     LOOP+:  cpu time   30.83: real time   31.81
    4ORBIT:  cpu time    0.00: real time    0.00
 


 total charge     
 
# of ion     s       p       d       tot
----------------------------------------
  1        0.314   6.159   8.874  15.348
  2        0.312   6.162   8.870  15.344
  3        0.312   6.159   8.872  15.344
  4        0.313   6.159   8.875  15.347
  5        0.312   6.159   8.878  15.349
  6        0.310   6.160   8.870  15.340
  7        0.310   6.160   8.877  15.347
  8        0.316   6.159   8.876  15.351
  9        0.313   6.160   8.875  15.347
 10        0.305   6.206   8.867  15.378
 11        0.297   6.208   8.869  15.374
 12        0.297   6.207   8.872  15.375
 13        0.300   6.209   8.863  15.372
 14        0.305   6.206   8.865  15.376
 15        0.299   6.207   8.870  15.376
 16        0.298   6.209   8.866  15.373
 17        0.298   6.209   8.869  15.376
 18        0.312   6.206   8.865  15.382
 19        0.301   6.206   8.863  15.370
 20        0.299   6.199   8.865  15.362
 21        0.299   6.205   8.869  15.374
 22        0.298   6.204   8.875  15.377
 23        0.299   6.201   8.866  15.366
 24        0.307   6.211   8.857  15.375
 25        0.304   6.209   8.858  15.371
 26        0.306   6.205   8.866  15.377
 27        0.307   6.208   8.861  15.377
 28        0.344   6.238   8.812  15.394
 29        0.346   6.239   8.810  15.395
 30        0.302   6.159   8.871  15.332
 31        0.342   6.238   8.818  15.397
 32        0.326   6.229   8.819  15.373
 33        0.321   6.227   8.799  15.346
 34        0.300   6.166   8.904  15.371
 35        0.334   6.235   8.837  15.406
 36        0.301   6.163   8.895  15.359
 37        0.962   1.283   0.000   2.245
 38        0.960   1.300   0.000   2.260
------------------------------------------------
tot       13.082 225.627 319.018 557.726
 

 total amount of memory used by VASP on root node    47514. kBytes
========================================================================

   base      :      30000. kBytes
   nonl-proj :       2083. kBytes
   fftplans  :       3009. kBytes
   grid      :       5130. kBytes
   one-center:         31. kBytes
   wavefun   :       7261. kBytes
 
  
  
 General timing and accounting informations for this job:
 ========================================================
  
                  Total CPU time used (sec):     3044.786
                            User time (sec):     3030.467
                          System time (sec):       14.320
                         Elapsed time (sec):     3134.876
  
                   Maximum memory used (kb):      145988.
                   Average memory used (kb):           0.
  
                          Minor page faults:       601274
                          Major page faults:            0
                 Voluntary context switches:        49199
