<?xml version="1.0" encoding="ISO-8859-1"?>
<modeling>
 <generator>
  <i name="program" type="string">vasp </i>
  <i name="version" type="string">5.3.5  </i>
  <i name="subversion" type="string">31Mar14 (build Aug  4 2014 13:16:38) complex                          parallel </i>
  <i name="platform" type="string">GRPO3GRAPHENEAVX </i>
  <i name="date" type="string">2017 07 29 </i>
  <i name="time" type="string">15:51:20 </i>
 </generator>
 <incar>
  <i type="string" name="PREC">accurate</i>
  <i type="int" name="NELMIN">     5</i>
  <i type="int" name="IBRION">     2</i>
  <i name="EDIFF">      0.00001000</i>
  <i type="int" name="NSW">   150</i>
  <i name="ENCUT">    400.00000000</i>
  <i name="POTIM">      0.50000000</i>
  <i type="logical" name="LREAL"> F  </i>
  <i type="int" name="ISMEAR">     0</i>
  <i name="SIGMA">      0.10000000</i>
  <i type="logical" name="LWAVE"> F  </i>
  <i type="logical" name="LCHARG"> F  </i>
  <i type="logical" name="LORBIT"> F  </i>
  <i type="logical" name="LASPH"> T  </i>
  <i type="logical" name="LDIPOL"> T  </i>
  <i type="int" name="IDIPOL">     3</i>
  <i type="logical" name="LASPH"> T  </i>
 </incar>
 <kpoints>
  <generation param="Gamma">
   <v type="int" name="divisions">       4        4        1 </v>
   <v name="usershift">      0.00000000       0.00000000       0.00000000 </v>
   <v name="genvec1">      0.25000000       0.00000000       0.00000000 </v>
   <v name="genvec2">      0.00000000       0.25000000       0.00000000 </v>
   <v name="genvec3">      0.00000000       0.00000000       1.00000000 </v>
   <v name="shift">      0.00000000       0.00000000       0.00000000 </v>
  </generation>
  <varray name="kpointlist" >
   <v>       0.00000000       0.00000000       0.00000000 </v>
   <v>       0.25000000       0.00000000       0.00000000 </v>
   <v>       0.50000000       0.00000000       0.00000000 </v>
   <v>       0.50000000       0.25000000       0.00000000 </v>
  </varray>
  <varray name="weights" >
   <v>       0.06250000 </v>
   <v>       0.37500000 </v>
   <v>       0.18750000 </v>
   <v>       0.37500000 </v>
  </varray>
 </kpoints>
 <parameters>
  <separator name="general" >
   <i type="string" name="SYSTEM">unknown system</i>
   <i type="logical" name="LCOMPAT"> F  </i>
  </separator>
  <separator name="electronic" >
   <i type="string" name="PREC">accura</i>
   <i name="ENMAX">    400.00000000</i>
   <i name="ENAUG">    758.23300000</i>
   <i name="EDIFF">      0.00001000</i>
   <i type="int" name="IALGO">    38</i>
   <i type="int" name="IWAVPR">    11</i>
   <i type="int" name="NBANDS">   372</i>
   <i name="NELECT">    620.00000000</i>
   <i type="int" name="TURBO">     0</i>
   <i type="int" name="IRESTART">     0</i>
   <i type="int" name="NREBOOT">     0</i>
   <i type="int" name="NMIN">     0</i>
   <i name="EREF">      0.00000000</i>
   <separator name="electronic smearing" >
    <i type="int" name="ISMEAR">     0</i>
    <i name="SIGMA">      0.10000000</i>
    <i name="KSPACING">      0.50000000</i>
    <i type="logical" name="KGAMMA"> T  </i>
   </separator>
   <separator name="electronic projectors" >
    <i type="logical" name="LREAL"> F  </i>
    <v name="ROPT">      0.00000000      0.00000000</v>
    <i type="int" name="LMAXPAW">  -100</i>
    <i type="int" name="LMAXMIX">     2</i>
    <i type="logical" name="NLSPLINE"> F  </i>
   </separator>
   <separator name="electronic startup" >
    <i type="int" name="ISTART">     0</i>
    <i type="int" name="ICHARG">     2</i>
    <i type="int" name="INIWAV">     1</i>
   </separator>
   <separator name="electronic spin" >
    <i type="int" name="ISPIN">     1</i>
    <i type="logical" name="LNONCOLLINEAR"> F  </i>
    <v name="MAGMOM">      1.00000000      1.00000000      1.00000000      1.00000000      1.00000000      1.00000000      1.00000000      1.00000000      1.00000000      1.00000000      1.00000000      1.00000000      1.00000000      1.00000000      1.00000000      1.00000000      1.00000000      1.00000000      1.00000000      1.00000000
      1.00000000      1.00000000      1.00000000      1.00000000      1.00000000      1.00000000      1.00000000      1.00000000      1.00000000      1.00000000      1.00000000      1.00000000      1.00000000      1.00000000      1.00000000      1.00000000      1.00000000      1.00000000</v>
    <i name="NUPDOWN">     -1.00000000</i>
    <i type="logical" name="LSORBIT"> F  </i>
    <v name="SAXIS">      0.00000000      0.00000000      1.00000000</v>
    <i type="logical" name="LSPIRAL"> F  </i>
    <v name="QSPIRAL">      0.00000000      0.00000000      0.00000000</v>
    <i type="logical" name="LZEROZ"> F  </i>
   </separator>
   <separator name="electronic exchange-correlation" >
    <i type="logical" name="LASPH"> T  </i>
    <i type="logical" name="LMETAGGA"> F  </i>
   </separator>
   <separator name="electronic convergence" >
    <i type="int" name="NELM">    60</i>
    <i type="int" name="NELMDL">    -5</i>
    <i type="int" name="NELMIN">     5</i>
    <i name="ENINI">    400.00000000</i>
    <separator name="electronic convergence detail" >
     <i type="logical" name="LDIAG"> T  </i>
     <i type="logical" name="LSUBROT"> F  </i>
     <i name="WEIMIN">      0.00100000</i>
     <i name="EBREAK">      0.00000001</i>
     <i name="DEPER">      0.30000000</i>
     <i type="int" name="NRMM">     4</i>
     <i name="TIME">      0.40000000</i>
    </separator>
   </separator>
   <separator name="electronic mixer" >
    <i name="AMIX">      0.40000000</i>
    <i name="BMIX">      1.00000000</i>
    <i name="AMIN">      0.10000000</i>
    <i name="AMIX_MAG">      1.60000000</i>
    <i name="BMIX_MAG">      1.00000000</i>
    <separator name="electronic mixer details" >
     <i type="int" name="IMIX">     4</i>
     <i type="int" name="MAXMIX">   -45</i>
     <i name="WC">    100.00000000</i>
     <i type="int" name="INIMIX">     1</i>
     <i type="int" name="MIXPRE">     1</i>
     <i type="int" name="MREMOVE">     5</i>
    </separator>
   </separator>
   <separator name="electronic dipolcorrection" >
    <i type="logical" name="LDIPOL"> T  </i>
    <i type="logical" name="LMONO"> F  </i>
    <i type="int" name="IDIPOL">     3</i>
    <i name="EPSILON">      1.00000000</i>
    <v name="DIPOL">   -100.00000000   -100.00000000   -100.00000000</v>
    <i name="EFIELD">      0.00000000</i>
   </separator>
  </separator>
  <separator name="grids" >
   <i type="int" name="NGX">    50</i>
   <i type="int" name="NGY">    50</i>
   <i type="int" name="NGZ">   180</i>
   <i type="int" name="NGXF">   100</i>
   <i type="int" name="NGYF">   100</i>
   <i type="int" name="NGZF">   360</i>
   <i type="logical" name="ADDGRID"> F  </i>
  </separator>
  <separator name="ionic" >
   <i type="int" name="NSW">   150</i>
   <i type="int" name="IBRION">     2</i>
   <i type="int" name="ISIF">     2</i>
   <i name="PSTRESS">      0.00000000</i>
   <i name="EDIFFG">      0.00010000</i>
   <i type="int" name="NFREE">     1</i>
   <i name="POTIM">      0.50000000</i>
   <i name="SMASS">     -3.00000000</i>
   <i name="SCALEE">      1.00000000</i>
  </separator>
  <separator name="ionic md" >
   <i name="TEBEG">      0.00010000</i>
   <i name="TEEND">      0.00010000</i>
   <i type="int" name="NBLOCK">     1</i>
   <i type="int" name="KBLOCK">   150</i>
   <i type="int" name="NPACO">   256</i>
   <i name="APACO">     16.00000000</i>
  </separator>
  <separator name="symmetry" >
   <i type="int" name="ISYM">     2</i>
   <i name="SYMPREC">      0.00001000</i>
  </separator>
  <separator name="dos" >
   <i type="logical" name="LORBIT"> F  </i>
   <v name="RWIGS">     -1.00000000     -1.00000000</v>
   <i type="int" name="NEDOS">   301</i>
   <i name="EMIN">     10.00000000</i>
   <i name="EMAX">    -10.00000000</i>
   <i name="EFERMI">      0.00000000</i>
  </separator>
  <separator name="writing" >
   <i type="int" name="NWRITE">     2</i>
   <i type="logical" name="LWAVE"> F  </i>
   <i type="logical" name="LCHARG"> F  </i>
   <i type="logical" name="LPARD"> F  </i>
   <i type="logical" name="LVTOT"> F  </i>
   <i type="logical" name="LVHAR"> F  </i>
   <i type="logical" name="LELF"> F  </i>
   <i type="logical" name="LOPTICS"> F  </i>
   <v name="STM">      0.00000000      0.00000000      0.00000000      0.00000000      0.00000000      0.00000000      0.00000000</v>
  </separator>
  <separator name="performance" >
   <i type="int" name="NPAR">     4</i>
   <i type="int" name="NSIM">     4</i>
   <i type="int" name="NBLK">    -1</i>
   <i type="logical" name="LPLANE"> T  </i>
   <i type="logical" name="LSCALAPACK"> T  </i>
   <i type="logical" name="LSCAAWARE"> T  </i>
   <i type="logical" name="LSCALU"> F  </i>
   <i type="logical" name="LASYNC"> F  </i>
   <i type="logical" name="LORBITALREAL"> F  </i>
  </separator>
  <separator name="miscellaneous" >
   <i type="int" name="IDIOT">     3</i>
   <i type="logical" name="LMUSIC"> F  </i>
   <v name="POMASS">     63.54600000     12.01100000</v>
   <v name="DARWINR">      0.00000000      0.00000000</v>
   <v name="DARWINV">      1.00000000      1.00000000</v>
   <i type="logical" name="LCORR"> T  </i>
  </separator>
  <i type="logical" name="GGA_COMPAT"> T  </i>
  <i type="logical" name="LBERRY"> F  </i>
  <i type="int" name="ICORELEVEL">     0</i>
  <i type="logical" name="LDAU"> F  </i>
  <i type="int" name="I_CONSTRAINED_M">     0</i>
  <separator name="electronic exchange-correlation" >
   <i type="string" name="GGA">--</i>
   <i type="int" name="VOSKOWN">     0</i>
   <i type="logical" name="LHFCALC"> F  </i>
   <i type="string" name="PRECFOCK"></i>
   <i type="logical" name="LSYMGRAD"> F  </i>
   <i type="logical" name="LHFONE"> F  </i>
   <i type="logical" name="LRHFCALC"> F  </i>
   <i type="logical" name="LTHOMAS"> F  </i>
   <i type="logical" name="LMODELHF"> F  </i>
   <i name="ENCUT4O">     -1.00000000</i>
   <i type="int" name="EXXOEP">     0</i>
   <i type="int" name="FOURORBIT">     0</i>
   <i name="AEXX">      0.00000000</i>
   <i name="HFALPHA">      0.00000000</i>
   <i name="MCALPHA">      0.00000000</i>
   <i name="ALDAX">      1.00000000</i>
   <i name="AGGAX">      1.00000000</i>
   <i name="ALDAC">      1.00000000</i>
   <i name="AGGAC">      1.00000000</i>
   <i type="int" name="NKREDX">     1</i>
   <i type="int" name="NKREDY">     1</i>
   <i type="int" name="NKREDZ">     1</i>
   <i type="logical" name="SHIFTRED"> F  </i>
   <i type="logical" name="ODDONLY"> F  </i>
   <i type="logical" name="EVENONLY"> F  </i>
   <i type="int" name="LMAXFOCK">     0</i>
   <i type="int" name="NMAXFOCKAE">     0</i>
   <i type="logical" name="LFOCKAEDFT"> F  </i>
   <i name="HFSCREEN">      0.00000000</i>
   <i name="HFSCREENC">      0.00000000</i>
   <i type="int" name="NBANDSGWLOW">     0</i>
  </separator>
  <separator name="vdW DFT" >
   <i type="logical" name="LUSE_VDW"> F  </i>
   <i name="Zab_VDW">     -0.84910000</i>
   <i name="PARAM1">      0.12340000</i>
   <i name="PARAM2">      1.00000000</i>
   <i name="PARAM3">      0.00000000</i>
  </separator>
  <separator name="model GW" >
   <i type="int" name="MODEL_GW">     0</i>
   <i name="MODEL_EPS0">     20.31700587</i>
   <i name="MODEL_ALPHA">      1.00000000</i>
  </separator>
  <separator name="linear response parameters" >
   <i type="logical" name="LEPSILON"> F  </i>
   <i type="logical" name="LRPA"> F  </i>
   <i type="logical" name="LNABLA"> F  </i>
   <i type="logical" name="LVEL"> F  </i>
   <i type="int" name="KINTER">     0</i>
   <i name="CSHIFT">      0.10000000</i>
   <i name="OMEGAMAX">     -1.00000000</i>
   <i name="DEG_THRESHOLD">      0.00200000</i>
  </separator>
  <separator name="orbital magnetization" >
   <i type="logical" name="NUCIND"> F  </i>
   <v name="MAGPOS">      0.00000000      0.00000000      0.00000000</v>
   <i type="logical" name="LNICSALL"> T  </i>
   <i type="logical" name="ORBITALMAG"> F  </i>
   <i type="logical" name="LMAGBLOCH"> F  </i>
   <i type="logical" name="LCHIMAG"> F  </i>
   <i type="logical" name="LGAUGE"> T  </i>
   <i type="int" name="MAGATOM">     0</i>
   <v name="MAGDIPOL">      0.00000000      0.00000000      0.00000000</v>
   <v name="AVECCONST">      0.00000000      0.00000000      0.00000000</v>
  </separator>
  <separator name="response functions" >
   <i type="logical" name="LADDER"> F  </i>
   <i type="logical" name="LFXC"> F  </i>
   <i type="logical" name="LHARTREE"> T  </i>
   <i type="int" name="IBSE">     0</i>
   <i type="logical" name="LTCTE"> F  </i>
   <i type="logical" name="LTETE"> F  </i>
   <i type="logical" name="LTRIPLET"> F  </i>
   <i type="logical" name="LFXCEPS"> F  </i>
   <i type="logical" name="LFXHEG"> F  </i>
   <i type="logical" name="L2ORDER"> F  </i>
   <i type="logical" name="LUSEW"> F  </i>
   <i name="ENCUTGW">     -2.00000000</i>
   <i name="ENCUTGWSOFT">     -2.00000000</i>
   <i name="ENCUTLF">     -1.00000000</i>
   <i type="int" name="LMAXMP2">    -1</i>
   <i name="SCISSOR">      0.00000000</i>
   <i type="int" name="NOMEGA">     0</i>
   <i type="int" name="NOMEGAR">     0</i>
   <i type="int" name="NBANDSGW">    -1</i>
   <i type="int" name="NBANDSO">    -1</i>
   <i type="int" name="NBANDSV">    -1</i>
   <i type="int" name="NELM">     1</i>
   <i type="int" name="DIM">     3</i>
   <i type="int" name="ANTIRES">     0</i>
   <i name="OMEGAMAX">    -30.00000000</i>
   <i name="OMEGAMIN">    -30.00000000</i>
   <i name="OMEGATL">   -200.00000000</i>
   <i type="int" name="OMEGAGRID">     0</i>
   <i name="CSHIFT">     -0.10000000</i>
   <i type="logical" name="SELFENERGY"> F  </i>
   <i type="logical" name="LSPECTRAL"> F  </i>
   <i type="logical" name="ODDONLYGW"> F  </i>
   <i type="logical" name="EVENONLYGW"> F  </i>
   <i type="int" name="NKREDLFX">     1</i>
   <i type="int" name="NKREDLFY">     1</i>
   <i type="int" name="NKREDLFZ">     1</i>
   <i type="int" name="MAXMEM">  1800</i>
   <i type="int" name="TELESCOPE">     0</i>
   <i type="int" name="TAUPAR">     1</i>
  </separator>
  <separator name="External order field" >
   <i name="OFIELD_KAPPA">      0.00000000</i>
   <v name="OFIELD_K">      0.00000000      0.00000000      0.00000000</v>
   <i name="OFIELD_Q6_NEAR">      0.00000000</i>
   <i name="OFIELD_Q6_FAR">      0.00000000</i>
   <i name="OFIELD_A">      0.00000000</i>
  </separator>
 </parameters>
 <atominfo>
  <atoms>      38 </atoms>
  <types>       2 </types>
  <array name="atoms" >
   <dimension dim="1">ion</dimension>
   <field type="string">element</field>
   <field type="int">atomtype</field>
   <set>
    <rc><c>Cu</c><c>   1</c></rc>
    <rc><c>Cu</c><c>   1</c></rc>
    <rc><c>Cu</c><c>   1</c></rc>
    <rc><c>Cu</c><c>   1</c></rc>
    <rc><c>Cu</c><c>   1</c></rc>
    <rc><c>Cu</c><c>   1</c></rc>
    <rc><c>Cu</c><c>   1</c></rc>
    <rc><c>Cu</c><c>   1</c></rc>
    <rc><c>Cu</c><c>   1</c></rc>
    <rc><c>Cu</c><c>   1</c></rc>
    <rc><c>Cu</c><c>   1</c></rc>
    <rc><c>Cu</c><c>   1</c></rc>
    <rc><c>Cu</c><c>   1</c></rc>
    <rc><c>Cu</c><c>   1</c></rc>
    <rc><c>Cu</c><c>   1</c></rc>
    <rc><c>Cu</c><c>   1</c></rc>
    <rc><c>Cu</c><c>   1</c></rc>
    <rc><c>Cu</c><c>   1</c></rc>
    <rc><c>Cu</c><c>   1</c></rc>
    <rc><c>Cu</c><c>   1</c></rc>
    <rc><c>Cu</c><c>   1</c></rc>
    <rc><c>Cu</c><c>   1</c></rc>
    <rc><c>Cu</c><c>   1</c></rc>
    <rc><c>Cu</c><c>   1</c></rc>
    <rc><c>Cu</c><c>   1</c></rc>
    <rc><c>Cu</c><c>   1</c></rc>
    <rc><c>Cu</c><c>   1</c></rc>
    <rc><c>Cu</c><c>   1</c></rc>
    <rc><c>Cu</c><c>   1</c></rc>
    <rc><c>Cu</c><c>   1</c></rc>
    <rc><c>Cu</c><c>   1</c></rc>
    <rc><c>Cu</c><c>   1</c></rc>
    <rc><c>Cu</c><c>   1</c></rc>
    <rc><c>Cu</c><c>   1</c></rc>
    <rc><c>Cu</c><c>   1</c></rc>
    <rc><c>Cu</c><c>   1</c></rc>
    <rc><c>C </c><c>   2</c></rc>
    <rc><c>C </c><c>   2</c></rc>
   </set>
  </array>
  <array name="atomtypes" >
   <dimension dim="1">type</dimension>
   <field type="int">atomspertype</field>
   <field type="string">element</field>
   <field>mass</field>
   <field>valence</field>
   <field type="string">pseudopotential</field>
   <set>
    <rc><c>  36</c><c>Cu</c><c>     63.54600000</c><c>     17.00000000</c><c>  PAW_PBE Cu_pv 06Sep2000               </c></rc>
    <rc><c>   2</c><c>C </c><c>     12.01100000</c><c>      4.00000000</c><c>  PAW_PBE C 08Apr2002                   </c></rc>
   </set>
  </array>
 </atominfo>
 <structure name="initialpos" >
  <crystal>
   <varray name="basis" >
    <v>       7.52954187       0.00000000       0.00000000 </v>
    <v>       3.76477094       6.52077454       0.00000000 </v>
    <v>       0.00000000       0.00000000      26.20742281 </v>
   </varray>
   <i name="volume">   1286.74370507 </i>
   <varray name="rec_basis" >
    <v>       0.13281021      -0.07667801       0.00000000 </v>
    <v>       0.00000000       0.15335602       0.00000000 </v>
    <v>       0.00000000       0.00000000       0.03815713 </v>
   </varray>
  </crystal>
  <varray name="positions" >
   <v>       0.00000000       0.00000000       0.00000000 </v>
   <v>       0.00000000       0.33333333       0.00000000 </v>
   <v>       0.00000000       0.66666667       0.00000000 </v>
   <v>       0.33333333       0.00000000       0.00000000 </v>
   <v>       0.33333333       0.33333333       0.00000000 </v>
   <v>       0.33333333       0.66666667       0.00000000 </v>
   <v>       0.66666667       0.00000000       0.00000000 </v>
   <v>       0.66666667       0.33333333       0.00000000 </v>
   <v>       0.66666667       0.66666667       0.00000000 </v>
   <v>       0.11111111       0.11111111       0.07819471 </v>
   <v>       0.11111111       0.44444444       0.07819471 </v>
   <v>       0.11111111       0.77777778       0.07819471 </v>
   <v>       0.44444444       0.11111111       0.07819471 </v>
   <v>       0.44444444       0.44444444       0.07819471 </v>
   <v>       0.44444444       0.77777778       0.07819471 </v>
   <v>       0.77777778       0.11111111       0.07819471 </v>
   <v>       0.77777778       0.44444444       0.07819471 </v>
   <v>       0.77777778       0.77777778       0.07819471 </v>
   <v>       0.22156672       0.22156672       0.15698183 </v>
   <v>       0.22219376       0.55556979       0.15663707 </v>
   <v>       0.22156672       0.89019990       0.15698183 </v>
   <v>       0.55556979       0.22219376       0.15663707 </v>
   <v>       0.55556979       0.55556979       0.15663707 </v>
   <v>       0.55498583       0.88917375       0.15640686 </v>
   <v>       0.89019990       0.22156672       0.15698183 </v>
   <v>       0.88917375       0.55498583       0.15640686 </v>
   <v>       0.88917375       0.88917375       0.15640686 </v>
   <v>       0.99499124       0.99499124       0.23819225 </v>
   <v>       0.99499124       0.34335085       0.23819225 </v>
   <v>       0.99922840       0.66705247       0.23489935 </v>
   <v>       0.34335085       0.99499124       0.23819225 </v>
   <v>       0.33432735       0.33432735       0.23600336 </v>
   <v>       0.33432735       0.66467863       0.23600336 </v>
   <v>       0.66705247       0.99922840       0.23489935 </v>
   <v>       0.66467863       0.33432735       0.23600336 </v>
   <v>       0.66705247       0.66705247       0.23489935 </v>
   <v>       0.11111111       0.11111111       0.27869515 </v>
   <v>       0.44444444       0.44444444       0.32773892 </v>
  </varray>
  <varray name="selective"  type="logical" >
   <v type="logical" >  F  F  F </v>
   <v type="logical" >  F  F  F </v>
   <v type="logical" >  F  F  F </v>
   <v type="logical" >  F  F  F </v>
   <v type="logical" >  F  F  F </v>
   <v type="logical" >  F  F  F </v>
   <v type="logical" >  F  F  F </v>
   <v type="logical" >  F  F  F </v>
   <v type="logical" >  F  F  F </v>
   <v type="logical" >  F  F  F </v>
   <v type="logical" >  F  F  F </v>
   <v type="logical" >  F  F  F </v>
   <v type="logical" >  F  F  F </v>
   <v type="logical" >  F  F  F </v>
   <v type="logical" >  F  F  F </v>
   <v type="logical" >  F  F  F </v>
   <v type="logical" >  F  F  F </v>
   <v type="logical" >  F  F  F </v>
   <v type="logical" >  T  T  T </v>
   <v type="logical" >  T  T  T </v>
   <v type="logical" >  T  T  T </v>
   <v type="logical" >  T  T  T </v>
   <v type="logical" >  T  T  T </v>
   <v type="logical" >  T  T  T </v>
   <v type="logical" >  T  T  T </v>
   <v type="logical" >  T  T  T </v>
   <v type="logical" >  T  T  T </v>
   <v type="logical" >  T  T  T </v>
   <v type="logical" >  T  T  T </v>
   <v type="logical" >  T  T  T </v>
   <v type="logical" >  T  T  T </v>
   <v type="logical" >  T  T  T </v>
   <v type="logical" >  T  T  T </v>
   <v type="logical" >  T  T  T </v>
   <v type="logical" >  T  T  T </v>
   <v type="logical" >  T  T  T </v>
   <v type="logical" >  T  T  T </v>
   <v type="logical" >  T  T  T </v>
  </varray>
  <nose>
   <v>      -3.00000000       0.00000000       0.00010000       0.00010000 </v>
  </nose>
 </structure>
 <calculation>
  <scstep>
   <time name="dav">    5.30    5.30</time>
   <time name="total">    5.56    5.66</time>
   <dipole>
    <v name="dipole">      0.00000000       0.00000000       0.00076443 </v>
    <i name="Tr[quadrupol]">  -5702.96477440 </i>
    <i name="Echarged">      0.00000000 </i>
    <i name="Edipol_quadrupol">      0.00000000 </i>
    <i name="Eion">      0.00000000 </i>
   </dipole>
   <energy>
    <i name="alphaZ">   1866.26335712 </i>
    <i name="ewald"> 636823.28374851 </i>
    <i name="hartreedc">-769951.94969130 </i>
    <i name="XCdc">   3922.22722045 </i>
    <i name="pawpsdc"> 125492.59529247 </i>
    <i name="pawaedc">-130873.98637355 </i>
    <i name="eentropy">     -0.05710388 </i>
    <i name="bandstr">  -9814.20081000 </i>
    <i name="atom"> 148614.99170617 </i>
    <i name="e_fr_energy">   6079.16734600 </i>
    <i name="e_wo_entrp">   6079.22444988 </i>
    <i name="e_0_energy">   6079.19589794 </i>
   </energy>
  </scstep>
  <scstep>
   <time name="dav">    4.64    4.64</time>
   <time name="total">    4.64    4.80</time>
   <dipole>
    <v name="dipole">      0.00000000       0.00000000       0.00076443 </v>
    <i name="Tr[quadrupol]">  -5702.96477440 </i>
    <i name="Echarged">      0.00000000 </i>
    <i name="Edipol_quadrupol">      0.00000000 </i>
    <i name="Eion">      0.00000000 </i>
   </dipole>
   <energy>
    <i name="e_fr_energy">    165.75888127 </i>
    <i name="e_wo_entrp">    165.82534597 </i>
    <i name="e_0_energy">    165.79211362 </i>
   </energy>
  </scstep>
  <scstep>
   <time name="dav">    4.69    4.70</time>
   <time name="total">    4.70    4.95</time>
   <dipole>
    <v name="dipole">      0.00000000       0.00000000       0.00076443 </v>
    <i name="Tr[quadrupol]">  -5702.96477440 </i>
    <i name="Echarged">      0.00000000 </i>
    <i name="Edipol_quadrupol">      0.00000000 </i>
    <i name="Eion">      0.00000000 </i>
   </dipole>
   <energy>
    <i name="e_fr_energy">   -161.37988687 </i>
    <i name="e_wo_entrp">   -161.30455911 </i>
    <i name="e_0_energy">   -161.34222299 </i>
   </energy>
  </scstep>
  <scstep>
   <time name="dav">    4.67    4.67</time>
   <time name="total">    4.67    4.75</time>
   <dipole>
    <v name="dipole">      0.00000000       0.00000000       0.00076443 </v>
    <i name="Tr[quadrupol]">  -5702.96477440 </i>
    <i name="Echarged">      0.00000000 </i>
    <i name="Edipol_quadrupol">      0.00000000 </i>
    <i name="Eion">      0.00000000 </i>
   </dipole>
   <energy>
    <i name="e_fr_energy">   -171.29369343 </i>
    <i name="e_wo_entrp">   -171.22631577 </i>
    <i name="e_0_energy">   -171.26000460 </i>
   </energy>
  </scstep>
  <scstep>
   <time name="dav">    4.99    4.99</time>
   <time name="total">    5.23    5.38</time>
   <dipole>
    <v name="dipole">      0.00000000       0.00000000       0.00076443 </v>
    <i name="Tr[quadrupol]">  -5702.96477440 </i>
    <i name="Echarged">      0.00000000 </i>
    <i name="Edipol_quadrupol">      0.00000000 </i>
    <i name="Eion">      0.00000000 </i>
   </dipole>
   <energy>
    <i name="e_fr_energy">   -171.64782336 </i>
    <i name="e_wo_entrp">   -171.58066748 </i>
    <i name="e_0_energy">   -171.61424542 </i>
   </energy>
  </scstep>
  <scstep>
   <time name="dav">    5.02    5.03</time>
   <time name="total">    5.51    5.57</time>
   <dipole>
    <v name="dipole">      0.00000000       0.00000000       2.12057344 </v>
    <i name="Tr[quadrupol]">  -5698.40429263 </i>
    <i name="Echarged">      0.00000000 </i>
    <i name="Edipol_quadrupol">      0.00000000 </i>
    <i name="Eion">      0.00000000 </i>
   </dipole>
   <energy>
    <i name="e_fr_energy">   -205.61299813 </i>
    <i name="e_wo_entrp">   -205.47703683 </i>
    <i name="e_0_energy">   -205.54501748 </i>
   </energy>
  </scstep>
  <scstep>
   <time name="dav">    5.24    5.24</time>
   <time name="total">    5.73    5.80</time>
   <dipole>
    <v name="dipole">      0.00000000       0.00000000      -0.91152159 </v>
    <i name="Tr[quadrupol]">  -5698.76706069 </i>
    <i name="Echarged">      0.00000000 </i>
    <i name="Edipol_quadrupol">      0.00000000 </i>
    <i name="Eion">      0.00000000 </i>
   </dipole>
   <energy>
    <i name="e_fr_energy">   -156.20649537 </i>
    <i name="e_wo_entrp">   -156.12226508 </i>
    <i name="e_0_energy">   -156.16438023 </i>
   </energy>
  </scstep>
  <scstep>
   <time name="dav">    5.27    5.28</time>
   <time name="total">    5.76    5.82</time>
   <dipole>
    <v name="dipole">      0.00000000       0.00000000       1.19540318 </v>
    <i name="Tr[quadrupol]">  -5701.52157078 </i>
    <i name="Echarged">      0.00000000 </i>
    <i name="Edipol_quadrupol">      0.00000000 </i>
    <i name="Eion">      0.00000000 </i>
   </dipole>
   <energy>
    <i name="e_fr_energy">   -152.17245797 </i>
    <i name="e_wo_entrp">   -152.07820341 </i>
    <i name="e_0_energy">   -152.12533069 </i>
   </energy>
  </scstep>
  <scstep>
   <time name="dav">    5.30    5.30</time>
   <time name="total">    5.78    6.07</time>
   <dipole>
    <v name="dipole">      0.00000000       0.00000000      -0.68978618 </v>
    <i name="Tr[quadrupol]">  -5704.26109826 </i>
    <i name="Echarged">      0.00000000 </i>
    <i name="Edipol_quadrupol">      0.00000000 </i>
    <i name="Eion">      0.00000000 </i>
   </dipole>
   <energy>
    <i name="e_fr_energy">   -146.43051582 </i>
    <i name="e_wo_entrp">   -146.32916903 </i>
    <i name="e_0_energy">   -146.37984242 </i>
   </energy>
  </scstep>
  <scstep>
   <time name="dav">    5.13    5.14</time>
   <time name="total">    5.63    5.69</time>
   <dipole>
    <v name="dipole">      0.00000000       0.00000000       0.12064771 </v>
    <i name="Tr[quadrupol]">  -5701.73242593 </i>
    <i name="Echarged">      0.00000000 </i>
    <i name="Edipol_quadrupol">      0.00000000 </i>
    <i name="Eion">      0.00000000 </i>
   </dipole>
   <energy>
    <i name="e_fr_energy">   -135.60726099 </i>
    <i name="e_wo_entrp">   -135.54301297 </i>
    <i name="e_0_energy">   -135.57513698 </i>
   </energy>
  </scstep>
  <scstep>
   <time name="dav">    5.00    5.01</time>
   <time name="total">    5.49    5.70</time>
   <dipole>
    <v name="dipole">      0.00000000       0.00000000       0.12267025 </v>
    <i name="Tr[quadrupol]">  -5704.13174176 </i>
    <i name="Echarged">      0.00000000 </i>
    <i name="Edipol_quadrupol">      0.00000000 </i>
    <i name="Eion">      0.00000000 </i>
   </dipole>
   <energy>
    <i name="e_fr_energy">   -136.50551006 </i>
    <i name="e_wo_entrp">   -136.40813370 </i>
    <i name="e_0_energy">   -136.45682188 </i>
   </energy>
  </scstep>
  <scstep>
   <time name="dav">    4.66    4.66</time>
   <time name="total">    5.15    5.27</time>
   <dipole>
    <v name="dipole">      0.00000000       0.00000000       0.30930113 </v>
    <i name="Tr[quadrupol]">  -5703.98541799 </i>
    <i name="Echarged">      0.00000000 </i>
    <i name="Edipol_quadrupol">      0.00000000 </i>
    <i name="Eion">      0.00000000 </i>
   </dipole>
   <energy>
    <i name="e_fr_energy">   -135.50861106 </i>
    <i name="e_wo_entrp">   -135.41609255 </i>
    <i name="e_0_energy">   -135.46235181 </i>
   </energy>
  </scstep>
  <scstep>
   <time name="dav">    4.65    4.65</time>
   <time name="total">    5.14    5.30</time>
   <dipole>
    <v name="dipole">      0.00000000       0.00000000       0.18562628 </v>
    <i name="Tr[quadrupol]">  -5704.18709354 </i>
    <i name="Echarged">      0.00000000 </i>
    <i name="Edipol_quadrupol">      0.00000000 </i>
    <i name="Eion">      0.00000000 </i>
   </dipole>
   <energy>
    <i name="e_fr_energy">   -135.27684389 </i>
    <i name="e_wo_entrp">   -135.15826306 </i>
    <i name="e_0_energy">   -135.21755347 </i>
   </energy>
  </scstep>
  <scstep>
   <time name="dav">    5.30    5.31</time>
   <time name="total">    5.79    5.84</time>
   <dipole>
    <v name="dipole">      0.00000000       0.00000000       0.15928455 </v>
    <i name="Tr[quadrupol]">  -5704.15927423 </i>
    <i name="Echarged">      0.00000000 </i>
    <i name="Edipol_quadrupol">      0.00000000 </i>
    <i name="Eion">      0.00000000 </i>
   </dipole>
   <energy>
    <i name="e_fr_energy">   -135.15432934 </i>
    <i name="e_wo_entrp">   -135.04725338 </i>
    <i name="e_0_energy">   -135.10079136 </i>
   </energy>
  </scstep>
  <scstep>
   <time name="dav">    4.89    4.89</time>
   <time name="total">    5.38    5.45</time>
   <dipole>
    <v name="dipole">      0.00000000       0.00000000       0.22612008 </v>
    <i name="Tr[quadrupol]">  -5704.11249445 </i>
    <i name="Echarged">      0.00000000 </i>
    <i name="Edipol_quadrupol">      0.00000000 </i>
    <i name="Eion">      0.00000000 </i>
   </dipole>
   <energy>
    <i name="e_fr_energy">   -135.22673331 </i>
    <i name="e_wo_entrp">   -135.13789397 </i>
    <i name="e_0_energy">   -135.18231364 </i>
   </energy>
  </scstep>
  <scstep>
   <time name="dav">    4.71    4.71</time>
   <time name="total">    5.19    5.41</time>
   <dipole>
    <v name="dipole">      0.00000000       0.00000000       0.17844857 </v>
    <i name="Tr[quadrupol]">  -5705.42370382 </i>
    <i name="Echarged">      0.00000000 </i>
    <i name="Edipol_quadrupol">      0.00000000 </i>
    <i name="Eion">      0.00000000 </i>
   </dipole>
   <energy>
    <i name="e_fr_energy">   -135.17262582 </i>
    <i name="e_wo_entrp">   -135.06187023 </i>
    <i name="e_0_energy">   -135.11724802 </i>
   </energy>
  </scstep>
  <scstep>
   <time name="dav">    4.72    4.73</time>
   <time name="total">    5.21    5.39</time>
   <dipole>
    <v name="dipole">      0.00000000       0.00000000       0.17043814 </v>
    <i name="Tr[quadrupol]">  -5705.76823959 </i>
    <i name="Echarged">      0.00000000 </i>
    <i name="Edipol_quadrupol">      0.00000000 </i>
    <i name="Eion">      0.00000000 </i>
   </dipole>
   <energy>
    <i name="e_fr_energy">   -135.12542572 </i>
    <i name="e_wo_entrp">   -135.01723127 </i>
    <i name="e_0_energy">   -135.07132850 </i>
   </energy>
  </scstep>
  <scstep>
   <time name="dav">    4.72    4.73</time>
   <time name="total">    5.21    5.29</time>
   <dipole>
    <v name="dipole">      0.00000000       0.00000000       0.18291524 </v>
    <i name="Tr[quadrupol]">  -5705.89861668 </i>
    <i name="Echarged">      0.00000000 </i>
    <i name="Edipol_quadrupol">      0.00000000 </i>
    <i name="Eion">      0.00000000 </i>
   </dipole>
   <energy>
    <i name="e_fr_energy">   -135.10499001 </i>
    <i name="e_wo_entrp">   -135.00171499 </i>
    <i name="e_0_energy">   -135.05335250 </i>
   </energy>
  </scstep>
  <scstep>
   <time name="dav">    5.27    5.27</time>
   <time name="total">    5.76    5.89</time>
   <dipole>
    <v name="dipole">      0.00000000       0.00000000       0.17417887 </v>
    <i name="Tr[quadrupol]">  -5705.97617601 </i>
    <i name="Echarged">      0.00000000 </i>
    <i name="Edipol_quadrupol">      0.00000000 </i>
    <i name="Eion">      0.00000000 </i>
   </dipole>
   <energy>
    <i name="e_fr_energy">   -135.11167063 </i>
    <i name="e_wo_entrp">   -135.00600296 </i>
    <i name="e_0_energy">   -135.05883679 </i>
   </energy>
  </scstep>
  <scstep>
   <time name="dav">    4.67    4.68</time>
   <time name="total">    5.16    5.27</time>
   <dipole>
    <v name="dipole">      0.00000000       0.00000000       0.17506575 </v>
    <i name="Tr[quadrupol]">  -5706.04808152 </i>
    <i name="Echarged">      0.00000000 </i>
    <i name="Edipol_quadrupol">      0.00000000 </i>
    <i name="Eion">      0.00000000 </i>
   </dipole>
   <energy>
    <i name="e_fr_energy">   -135.11295550 </i>
    <i name="e_wo_entrp">   -135.00666292 </i>
    <i name="e_0_energy">   -135.05980921 </i>
   </energy>
  </scstep>
  <scstep>
   <time name="dav">    4.60    4.61</time>
   <time name="total">    5.09    5.28</time>
   <dipole>
    <v name="dipole">      0.00000000       0.00000000       0.17805188 </v>
    <i name="Tr[quadrupol]">  -5706.08860142 </i>
    <i name="Echarged">      0.00000000 </i>
    <i name="Edipol_quadrupol">      0.00000000 </i>
    <i name="Eion">      0.00000000 </i>
   </dipole>
   <energy>
    <i name="e_fr_energy">   -135.11198053 </i>
    <i name="e_wo_entrp">   -135.00587040 </i>
    <i name="e_0_energy">   -135.05892546 </i>
   </energy>
  </scstep>
  <scstep>
   <time name="dav">    4.67    4.67</time>
   <time name="total">    5.16    5.25</time>
   <dipole>
    <v name="dipole">      0.00000000       0.00000000       0.19277435 </v>
    <i name="Tr[quadrupol]">  -5706.23061257 </i>
    <i name="Echarged">      0.00000000 </i>
    <i name="Edipol_quadrupol">      0.00000000 </i>
    <i name="Eion">      0.00000000 </i>
   </dipole>
   <energy>
    <i name="e_fr_energy">   -135.10537899 </i>
    <i name="e_wo_entrp">   -135.00214145 </i>
    <i name="e_0_energy">   -135.05376022 </i>
   </energy>
  </scstep>
  <scstep>
   <time name="dav">    5.47    5.48</time>
   <time name="total">    5.96    6.08</time>
   <dipole>
    <v name="dipole">      0.00000000       0.00000000       0.22297037 </v>
    <i name="Tr[quadrupol]">  -5705.69357891 </i>
    <i name="Echarged">      0.00000000 </i>
    <i name="Edipol_quadrupol">      0.00000000 </i>
    <i name="Eion">      0.00000000 </i>
   </dipole>
   <energy>
    <i name="e_fr_energy">   -135.10628236 </i>
    <i name="e_wo_entrp">   -135.00496346 </i>
    <i name="e_0_energy">   -135.05562291 </i>
   </energy>
  </scstep>
  <scstep>
   <time name="dav">    4.20    4.21</time>
   <time name="total">    4.70    4.90</time>
   <dipole>
    <v name="dipole">      0.00000000       0.00000000       0.23443198 </v>
    <i name="Tr[quadrupol]">  -5705.36707393 </i>
    <i name="Echarged">      0.00000000 </i>
    <i name="Edipol_quadrupol">      0.00000000 </i>
    <i name="Eion">      0.00000000 </i>
   </dipole>
   <energy>
    <i name="e_fr_energy">   -135.10701083 </i>
    <i name="e_wo_entrp">   -135.00578516 </i>
    <i name="e_0_energy">   -135.05639800 </i>
   </energy>
  </scstep>
  <scstep>
   <time name="dav">    4.25    4.25</time>
   <time name="total">    4.74    4.79</time>
   <dipole>
    <v name="dipole">      0.00000000       0.00000000       0.23397762 </v>
    <i name="Tr[quadrupol]">  -5705.23320801 </i>
    <i name="Echarged">      0.00000000 </i>
    <i name="Edipol_quadrupol">      0.00000000 </i>
    <i name="Eion">      0.00000000 </i>
   </dipole>
   <energy>
    <i name="e_fr_energy">   -135.10559469 </i>
    <i name="e_wo_entrp">   -135.00397929 </i>
    <i name="e_0_energy">   -135.05478699 </i>
   </energy>
  </scstep>
  <scstep>
   <time name="dav">    5.86    5.87</time>
   <time name="total">    6.35    6.38</time>
   <dipole>
    <v name="dipole">      0.00000000       0.00000000       0.19038348 </v>
    <i name="Tr[quadrupol]">  -5705.78375182 </i>
    <i name="Echarged">      0.00000000 </i>
    <i name="Edipol_quadrupol">      0.00000000 </i>
    <i name="Eion">      0.00000000 </i>
   </dipole>
   <energy>
    <i name="e_fr_energy">   -135.12036812 </i>
    <i name="e_wo_entrp">   -135.01558078 </i>
    <i name="e_0_energy">   -135.06797445 </i>
   </energy>
  </scstep>
  <scstep>
   <time name="dav">    4.52    4.52</time>
   <time name="total">    5.01    5.22</time>
   <dipole>
    <v name="dipole">      0.00000000       0.00000000       0.18898269 </v>
    <i name="Tr[quadrupol]">  -5705.99301009 </i>
    <i name="Echarged">      0.00000000 </i>
    <i name="Edipol_quadrupol">      0.00000000 </i>
    <i name="Eion">      0.00000000 </i>
   </dipole>
   <energy>
    <i name="e_fr_energy">   -135.11613031 </i>
    <i name="e_wo_entrp">   -135.01176124 </i>
    <i name="e_0_energy">   -135.06394578 </i>
   </energy>
  </scstep>
  <scstep>
   <time name="dav">    3.55    3.55</time>
   <time name="total">    4.04    4.10</time>
   <dipole>
    <v name="dipole">      0.00000000       0.00000000       0.19158120 </v>
    <i name="Tr[quadrupol]">  -5706.10074593 </i>
    <i name="Echarged">      0.00000000 </i>
    <i name="Edipol_quadrupol">      0.00000000 </i>
    <i name="Eion">      0.00000000 </i>
   </dipole>
   <energy>
    <i name="e_fr_energy">   -135.11292015 </i>
    <i name="e_wo_entrp">   -135.00891378 </i>
    <i name="e_0_energy">   -135.06091696 </i>
   </energy>
  </scstep>
  <scstep>
   <time name="dav">    5.89    5.90</time>
   <time name="total">    6.38    6.57</time>
   <dipole>
    <v name="dipole">      0.00000000       0.00000000       0.21110504 </v>
    <i name="Tr[quadrupol]">  -5706.22213832 </i>
    <i name="Echarged">      0.00000000 </i>
    <i name="Edipol_quadrupol">      0.00000000 </i>
    <i name="Eion">      0.00000000 </i>
   </dipole>
   <energy>
    <i name="e_fr_energy">   -135.10529665 </i>
    <i name="e_wo_entrp">   -135.00299010 </i>
    <i name="e_0_energy">   -135.05414338 </i>
   </energy>
  </scstep>
  <scstep>
   <time name="dav">    5.26    5.27</time>
   <time name="total">    5.75    5.89</time>
   <dipole>
    <v name="dipole">      0.00000000       0.00000000       0.22493176 </v>
    <i name="Tr[quadrupol]">  -5705.80863426 </i>
    <i name="Echarged">      0.00000000 </i>
    <i name="Edipol_quadrupol">      0.00000000 </i>
    <i name="Eion">      0.00000000 </i>
   </dipole>
   <energy>
    <i name="e_fr_energy">   -135.10593688 </i>
    <i name="e_wo_entrp">   -135.00391650 </i>
    <i name="e_0_energy">   -135.05492669 </i>
   </energy>
  </scstep>
  <scstep>
   <time name="dav">    4.20    4.21</time>
   <time name="total">    4.70    4.81</time>
   <dipole>
    <v name="dipole">      0.00000000       0.00000000       0.21994655 </v>
    <i name="Tr[quadrupol]">  -5706.04510345 </i>
    <i name="Echarged">      0.00000000 </i>
    <i name="Edipol_quadrupol">      0.00000000 </i>
    <i name="Eion">      0.00000000 </i>
   </dipole>
   <energy>
    <i name="e_fr_energy">   -135.10610977 </i>
    <i name="e_wo_entrp">   -135.00388707 </i>
    <i name="e_0_energy">   -135.05499842 </i>
   </energy>
  </scstep>
  <scstep>
   <time name="dav">    4.10    4.10</time>
   <time name="total">    4.59    4.62</time>
   <dipole>
    <v name="dipole">      0.00000000       0.00000000       0.22045027 </v>
    <i name="Tr[quadrupol]">  -5706.14876035 </i>
    <i name="Echarged">      0.00000000 </i>
    <i name="Edipol_quadrupol">      0.00000000 </i>
    <i name="Eion">      0.00000000 </i>
   </dipole>
   <energy>
    <i name="e_fr_energy">   -135.10617003 </i>
    <i name="e_wo_entrp">   -135.00407927 </i>
    <i name="e_0_energy">   -135.05512465 </i>
   </energy>
  </scstep>
  <scstep>
   <time name="dav">    3.29    3.29</time>
   <time name="total">    3.78    3.88</time>
   <dipole>
    <v name="dipole">      0.00000000       0.00000000       0.22204386 </v>
    <i name="Tr[quadrupol]">  -5706.22907728 </i>
    <i name="Echarged">      0.00000000 </i>
    <i name="Edipol_quadrupol">      0.00000000 </i>
    <i name="Eion">      0.00000000 </i>
   </dipole>
   <energy>
    <i name="e_fr_energy">   -135.10627862 </i>
    <i name="e_wo_entrp">   -135.00422247 </i>
    <i name="e_0_energy">   -135.05525055 </i>
   </energy>
  </scstep>
  <scstep>
   <time name="dav">    3.31    3.31</time>
   <time name="total">    3.80    3.84</time>
   <dipole>
    <v name="dipole">      0.00000000       0.00000000       0.23290780 </v>
    <i name="Tr[quadrupol]">  -5705.82958253 </i>
    <i name="Echarged">      0.00000000 </i>
    <i name="Edipol_quadrupol">      0.00000000 </i>
    <i name="Eion">      0.00000000 </i>
   </dipole>
   <energy>
    <i name="e_fr_energy">   -135.10686977 </i>
    <i name="e_wo_entrp">   -135.00507579 </i>
    <i name="e_0_energy">   -135.05597278 </i>
   </energy>
  </scstep>
  <scstep>
   <time name="dav">    3.41    3.41</time>
   <time name="total">    3.91    4.00</time>
   <dipole>
    <v name="dipole">      0.00000000       0.00000000       0.22869439 </v>
    <i name="Tr[quadrupol]">  -5706.04640901 </i>
    <i name="Echarged">      0.00000000 </i>
    <i name="Edipol_quadrupol">      0.00000000 </i>
    <i name="Eion">      0.00000000 </i>
   </dipole>
   <energy>
    <i name="e_fr_energy">   -135.10645406 </i>
    <i name="e_wo_entrp">   -135.00427130 </i>
    <i name="e_0_energy">   -135.05536268 </i>
   </energy>
  </scstep>
  <scstep>
   <time name="dav">    3.60    3.60</time>
   <time name="total">    4.09    4.25</time>
   <dipole>
    <v name="dipole">      0.00000000       0.00000000       0.22781254 </v>
    <i name="Tr[quadrupol]">  -5706.12537463 </i>
    <i name="Echarged">      0.00000000 </i>
    <i name="Edipol_quadrupol">      0.00000000 </i>
    <i name="Eion">      0.00000000 </i>
   </dipole>
   <energy>
    <i name="e_fr_energy">   -135.10652647 </i>
    <i name="e_wo_entrp">   -135.00419514 </i>
    <i name="e_0_energy">   -135.05536080 </i>
   </energy>
  </scstep>
  <scstep>
   <time name="dav">    3.82    3.82</time>
   <time name="total">    4.32    4.60</time>
   <dipole>
    <v name="dipole">      0.00000000       0.00000000       0.23041281 </v>
    <i name="Tr[quadrupol]">  -5705.79245657 </i>
    <i name="Echarged">      0.00000000 </i>
    <i name="Edipol_quadrupol">      0.00000000 </i>
    <i name="Eion">      0.00000000 </i>
   </dipole>
   <energy>
    <i name="e_fr_energy">   -135.10653691 </i>
    <i name="e_wo_entrp">   -135.00430224 </i>
    <i name="e_0_energy">   -135.05541958 </i>
   </energy>
  </scstep>
  <scstep>
   <time name="dav">    3.20    3.20</time>
   <time name="total">    3.69    3.89</time>
   <dipole>
    <v name="dipole">      0.00000000       0.00000000       0.23148120 </v>
    <i name="Tr[quadrupol]">  -5705.62678199 </i>
    <i name="Echarged">      0.00000000 </i>
    <i name="Edipol_quadrupol">      0.00000000 </i>
    <i name="Eion">      0.00000000 </i>
   </dipole>
   <energy>
    <i name="e_fr_energy">   -135.10654893 </i>
    <i name="e_wo_entrp">   -135.00432549 </i>
    <i name="e_0_energy">   -135.05543721 </i>
   </energy>
  </scstep>
  <scstep>
   <time name="dav">    3.16    3.16</time>
   <time name="total">    3.65    3.76</time>
   <dipole>
    <v name="dipole">      0.00000000       0.00000000       0.23197368 </v>
    <i name="Tr[quadrupol]">  -5705.52640193 </i>
    <i name="Echarged">      0.00000000 </i>
    <i name="Edipol_quadrupol">      0.00000000 </i>
    <i name="Eion">      0.00000000 </i>
   </dipole>
   <energy>
    <i name="e_fr_energy">   -135.10655990 </i>
    <i name="e_wo_entrp">   -135.00435185 </i>
    <i name="e_0_energy">   -135.05545587 </i>
   </energy>
  </scstep>
  <scstep>
   <time name="dav">    3.20    3.20</time>
   <time name="total">    3.69    3.87</time>
   <dipole>
    <v name="dipole">      0.00000000       0.00000000       0.23205372 </v>
    <i name="Tr[quadrupol]">  -5705.49471900 </i>
    <i name="Echarged">      0.00000000 </i>
    <i name="Edipol_quadrupol">      0.00000000 </i>
    <i name="Eion">      0.00000000 </i>
   </dipole>
   <energy>
    <i name="e_fr_energy">   -135.10657059 </i>
    <i name="e_wo_entrp">   -135.00438077 </i>
    <i name="e_0_energy">   -135.05547568 </i>
   </energy>
  </scstep>
  <scstep>
   <time name="dav">    3.17    3.17</time>
   <time name="total">    3.43    3.61</time>
   <dipole>
    <v name="dipole">      0.00000000       0.00000000       0.23170104 </v>
    <i name="Tr[quadrupol]">  -5705.46692772 </i>
    <i name="Echarged">      0.00000000 </i>
    <i name="Edipol_quadrupol">      0.00000000 </i>
    <i name="Eion">      0.00000000 </i>
   </dipole>
   <energy>
    <i name="alphaZ">   1846.62024873 </i>
    <i name="ewald"> 636823.28374851 </i>
    <i name="hartreedc">-768745.42984395 </i>
    <i name="XCdc">   3872.29353741 </i>
    <i name="pawpsdc"> 130255.34844486 </i>
    <i name="pawaedc">-135809.17790424 </i>
    <i name="eentropy">     -0.10220931 </i>
    <i name="bandstr"> -16992.93430622 </i>
    <i name="atom"> 148614.99170617 </i>
    <i name="e_fr_energy">   -135.10657804 </i>
    <i name="e_wo_entrp">   -135.00436873 </i>
    <i name="e_0_energy">   -135.05547338 </i>
   </energy>
  </scstep>
  <structure>
   <crystal>
    <varray name="basis" >
     <v>       7.52954187       0.00000000       0.00000000 </v>
     <v>       3.76477094       6.52077454       0.00000000 </v>
     <v>       0.00000000       0.00000000      26.20742281 </v>
    </varray>
    <i name="volume">   1286.74370507 </i>
    <varray name="rec_basis" >
     <v>       0.13281021      -0.07667801       0.00000000 </v>
     <v>       0.00000000       0.15335602       0.00000000 </v>
     <v>       0.00000000       0.00000000       0.03815713 </v>
    </varray>
   </crystal>
   <varray name="positions" >
    <v>       0.00000000       0.00000000       0.00000000 </v>
    <v>       0.00000000       0.33333333       0.00000000 </v>
    <v>       0.00000000       0.66666667       0.00000000 </v>
    <v>       0.33333333       0.00000000       0.00000000 </v>
    <v>       0.33333333       0.33333333       0.00000000 </v>
    <v>       0.33333333       0.66666667       0.00000000 </v>
    <v>       0.66666667       0.00000000       0.00000000 </v>
    <v>       0.66666667       0.33333333       0.00000000 </v>
    <v>       0.66666667       0.66666667       0.00000000 </v>
    <v>       0.11111111       0.11111111       0.07819471 </v>
    <v>       0.11111111       0.44444444       0.07819471 </v>
    <v>       0.11111111       0.77777778       0.07819471 </v>
    <v>       0.44444444       0.11111111       0.07819471 </v>
    <v>       0.44444444       0.44444444       0.07819471 </v>
    <v>       0.44444444       0.77777778       0.07819471 </v>
    <v>       0.77777778       0.11111111       0.07819471 </v>
    <v>       0.77777778       0.44444444       0.07819471 </v>
    <v>       0.77777778       0.77777778       0.07819471 </v>
    <v>       0.22156672       0.22156672       0.15698183 </v>
    <v>       0.22219376       0.55556979       0.15663707 </v>
    <v>       0.22156672       0.89019990       0.15698183 </v>
    <v>       0.55556979       0.22219376       0.15663707 </v>
    <v>       0.55556979       0.55556979       0.15663707 </v>
    <v>       0.55498583       0.88917375       0.15640686 </v>
    <v>       0.89019990       0.22156672       0.15698183 </v>
    <v>       0.88917375       0.55498583       0.15640686 </v>
    <v>       0.88917375       0.88917375       0.15640686 </v>
    <v>       0.99499124       0.99499124       0.23819225 </v>
    <v>       0.99499124       0.34335085       0.23819225 </v>
    <v>       0.99922840       0.66705247       0.23489935 </v>
    <v>       0.34335085       0.99499124       0.23819225 </v>
    <v>       0.33432735       0.33432735       0.23600336 </v>
    <v>       0.33432735       0.66467863       0.23600336 </v>
    <v>       0.66705247       0.99922840       0.23489935 </v>
    <v>       0.66467863       0.33432735       0.23600336 </v>
    <v>       0.66705247       0.66705247       0.23489935 </v>
    <v>       0.11111111       0.11111111       0.27869515 </v>
    <v>       0.44444444       0.44444444       0.32773892 </v>
   </varray>
  </structure>
  <varray name="forces" >
   <v>       0.01950029       0.01125850      -0.18283094 </v>
   <v>       0.00000000      -0.02251700      -0.18283094 </v>
   <v>      -0.01255264       0.00724727      -0.14686019 </v>
   <v>      -0.01950029       0.01125850      -0.18283094 </v>
   <v>       0.04110140       0.02372991      -0.15111656 </v>
   <v>       0.00000000      -0.04745981      -0.15111656 </v>
   <v>       0.00000000      -0.01449454      -0.14686019 </v>
   <v>      -0.04110140       0.02372991      -0.15111656 </v>
   <v>       0.01255264       0.00724727      -0.14686019 </v>
   <v>       0.00000000       0.00000000       0.07425181 </v>
   <v>       0.01052579      -0.00883507       0.16486824 </v>
   <v>       0.01291429      -0.00469806       0.16486824 </v>
   <v>      -0.00238850       0.01353314       0.16486824 </v>
   <v>       0.00000000       0.00000000       0.17371024 </v>
   <v>      -0.01291429      -0.00469806       0.16486824 </v>
   <v>       0.00238850       0.01353314       0.16486824 </v>
   <v>      -0.01052579      -0.00883507       0.16486824 </v>
   <v>       0.00000000       0.00000000       0.07088947 </v>
   <v>       0.06189662       0.03573603       0.04141489 </v>
   <v>       0.04373691      -0.02525152      -0.05590425 </v>
   <v>       0.00000000      -0.07147206       0.04141489 </v>
   <v>       0.00000000       0.05050303      -0.05590425 </v>
   <v>      -0.04373691      -0.02525152      -0.05590425 </v>
   <v>       0.01175387      -0.00678610       0.02502903 </v>
   <v>      -0.06189662       0.03573603       0.04141489 </v>
   <v>       0.00000000       0.01357220       0.02502903 </v>
   <v>      -0.01175387      -0.00678610       0.02502903 </v>
   <v>       0.06224090       0.03593480       0.01583120 </v>
   <v>       0.00000000      -0.07186960       0.01583120 </v>
   <v>      -0.00070337       0.00040609       0.10106755 </v>
   <v>      -0.06224090       0.03593480       0.01583120 </v>
   <v>       0.22726998       0.13121439       0.84577711 </v>
   <v>       0.00000000      -0.26242877       0.84577711 </v>
   <v>       0.00000000      -0.00081218       0.10106755 </v>
   <v>      -0.22726998       0.13121439       0.84577711 </v>
   <v>       0.00070337       0.00040609       0.10106755 </v>
   <v>       0.00000000       0.00000000      -0.08764272 </v>
   <v>       0.00000000       0.00000000      -2.69764172 </v>
  </varray>
  <varray name="stress" >
   <v>      -8.71224932       0.00000000       0.00000000 </v>
   <v>       0.00000000      -8.71224932       0.00000000 </v>
   <v>       0.00000000       0.00000000     -12.04235049 </v>
  </varray>
  <energy>
   <i name="e_fr_energy">   -148.75034428 </i>
   <i name="e_wo_entrp">   -148.69923962 </i>
   <i name="e_0_energy">     -0.10220931 </i>
  </energy>
  <time name="totalsc">  209.38  214.94</time>
 </calculation>
 <calculation>
  <scstep>
   <time name="dav">    5.23    5.24</time>
   <time name="total">    5.73    5.75</time>
   <dipole>
    <v name="dipole">      0.00000000       0.00000000       0.23185289 </v>
    <i name="Tr[quadrupol]">  -5711.24633900 </i>
    <i name="Echarged">      0.00000000 </i>
    <i name="Edipol_quadrupol">      0.00000000 </i>
    <i name="Eion">      0.00000000 </i>
   </dipole>
   <energy>
    <i name="alphaZ">   1845.07526722 </i>
    <i name="ewald"> 635842.36587526 </i>
    <i name="hartreedc">-767765.96420642 </i>
    <i name="XCdc">   3872.26334020 </i>
    <i name="pawpsdc"> 130255.55042792 </i>
    <i name="pawaedc">-135809.36690044 </i>
    <i name="eentropy">     -0.10151925 </i>
    <i name="bandstr"> -16987.58896666 </i>
    <i name="atom"> 148614.99170617 </i>
    <i name="e_fr_energy">   -132.77497601 </i>
    <i name="e_wo_entrp">   -132.67345676 </i>
    <i name="e_0_energy">   -132.72421638 </i>
   </energy>
  </scstep>
  <scstep>
   <time name="dav">    4.61    4.61</time>
   <time name="total">    5.10    5.23</time>
   <dipole>
    <v name="dipole">      0.00000000       0.00000000       0.47293964 </v>
    <i name="Tr[quadrupol]">  -5710.71310113 </i>
    <i name="Echarged">      0.00000000 </i>
    <i name="Edipol_quadrupol">      0.00000000 </i>
    <i name="Eion">      0.00000000 </i>
   </dipole>
   <energy>
    <i name="e_fr_energy">   -137.19019914 </i>
    <i name="e_wo_entrp">   -137.12795397 </i>
    <i name="e_0_energy">   -137.15907656 </i>
   </energy>
  </scstep>
  <scstep>
   <time name="dav">    5.64    5.64</time>
   <time name="total">    6.14    6.24</time>
   <dipole>
    <v name="dipole">      0.00000000       0.00000000      -0.19839917 </v>
    <i name="Tr[quadrupol]">  -5712.09170687 </i>
    <i name="Echarged">      0.00000000 </i>
    <i name="Edipol_quadrupol">      0.00000000 </i>
    <i name="Eion">      0.00000000 </i>
   </dipole>
   <energy>
    <i name="e_fr_energy">   -139.71399931 </i>
    <i name="e_wo_entrp">   -139.62202396 </i>
    <i name="e_0_energy">   -139.66801164 </i>
   </energy>
  </scstep>
  <scstep>
   <time name="dav">    5.20    5.20</time>
   <time name="total">    5.68    5.89</time>
   <dipole>
    <v name="dipole">      0.00000000       0.00000000       0.25180795 </v>
    <i name="Tr[quadrupol]">  -5711.63816375 </i>
    <i name="Echarged">      0.00000000 </i>
    <i name="Edipol_quadrupol">      0.00000000 </i>
    <i name="Eion">      0.00000000 </i>
   </dipole>
   <energy>
    <i name="e_fr_energy">   -135.59574551 </i>
    <i name="e_wo_entrp">   -135.50392199 </i>
    <i name="e_0_energy">   -135.54983375 </i>
   </energy>
  </scstep>
  <scstep>
   <time name="dav">    5.06    5.07</time>
   <time name="total">    5.55    5.67</time>
   <dipole>
    <v name="dipole">      0.00000000       0.00000000       0.23847784 </v>
    <i name="Tr[quadrupol]">  -5711.89423991 </i>
    <i name="Echarged">      0.00000000 </i>
    <i name="Edipol_quadrupol">      0.00000000 </i>
    <i name="Eion">      0.00000000 </i>
   </dipole>
   <energy>
    <i name="e_fr_energy">   -135.61800152 </i>
    <i name="e_wo_entrp">   -135.52454407 </i>
    <i name="e_0_energy">   -135.57127279 </i>
   </energy>
  </scstep>
  <scstep>
   <time name="dav">    4.71    4.72</time>
   <time name="total">    5.20    5.30</time>
   <dipole>
    <v name="dipole">      0.00000000       0.00000000       0.24493169 </v>
    <i name="Tr[quadrupol]">  -5712.04666945 </i>
    <i name="Echarged">      0.00000000 </i>
    <i name="Edipol_quadrupol">      0.00000000 </i>
    <i name="Eion">      0.00000000 </i>
   </dipole>
   <energy>
    <i name="e_fr_energy">   -135.61299474 </i>
    <i name="e_wo_entrp">   -135.51708052 </i>
    <i name="e_0_energy">   -135.56503763 </i>
   </energy>
  </scstep>
  <scstep>
   <time name="dav">    4.59    4.59</time>
   <time name="total">    5.08    5.24</time>
   <dipole>
    <v name="dipole">      0.00000000       0.00000000       0.24857083 </v>
    <i name="Tr[quadrupol]">  -5712.18483005 </i>
    <i name="Echarged">      0.00000000 </i>
    <i name="Edipol_quadrupol">      0.00000000 </i>
    <i name="Eion">      0.00000000 </i>
   </dipole>
   <energy>
    <i name="e_fr_energy">   -135.61438340 </i>
    <i name="e_wo_entrp">   -135.51999586 </i>
    <i name="e_0_energy">   -135.56718963 </i>
   </energy>
  </scstep>
  <scstep>
   <time name="dav">    4.72    4.73</time>
   <time name="total">    5.21    5.27</time>
   <dipole>
    <v name="dipole">      0.00000000       0.00000000       0.24726750 </v>
    <i name="Tr[quadrupol]">  -5712.24206038 </i>
    <i name="Echarged">      0.00000000 </i>
    <i name="Edipol_quadrupol">      0.00000000 </i>
    <i name="Eion">      0.00000000 </i>
   </dipole>
   <energy>
    <i name="e_fr_energy">   -135.61073405 </i>
    <i name="e_wo_entrp">   -135.51487788 </i>
    <i name="e_0_energy">   -135.56280596 </i>
   </energy>
  </scstep>
  <scstep>
   <time name="dav">    5.71    5.72</time>
   <time name="total">    6.20    6.32</time>
   <dipole>
    <v name="dipole">      0.00000000       0.00000000       0.23645840 </v>
    <i name="Tr[quadrupol]">  -5712.06553027 </i>
    <i name="Echarged">      0.00000000 </i>
    <i name="Edipol_quadrupol">      0.00000000 </i>
    <i name="Eion">      0.00000000 </i>
   </dipole>
   <energy>
    <i name="e_fr_energy">   -135.61199618 </i>
    <i name="e_wo_entrp">   -135.51634403 </i>
    <i name="e_0_energy">   -135.56417011 </i>
   </energy>
  </scstep>
  <scstep>
   <time name="dav">    5.27    5.28</time>
   <time name="total">    5.76    5.93</time>
   <dipole>
    <v name="dipole">      0.00000000       0.00000000       0.24972878 </v>
    <i name="Tr[quadrupol]">  -5711.90174603 </i>
    <i name="Echarged">      0.00000000 </i>
    <i name="Edipol_quadrupol">      0.00000000 </i>
    <i name="Eion">      0.00000000 </i>
   </dipole>
   <energy>
    <i name="e_fr_energy">   -135.61166192 </i>
    <i name="e_wo_entrp">   -135.51408339 </i>
    <i name="e_0_energy">   -135.56287265 </i>
   </energy>
  </scstep>
  <scstep>
   <time name="dav">    4.87    4.87</time>
   <time name="total">    5.36    5.53</time>
   <dipole>
    <v name="dipole">      0.00000000       0.00000000       0.24418118 </v>
    <i name="Tr[quadrupol]">  -5711.83626174 </i>
    <i name="Echarged">      0.00000000 </i>
    <i name="Edipol_quadrupol">      0.00000000 </i>
    <i name="Eion">      0.00000000 </i>
   </dipole>
   <energy>
    <i name="e_fr_energy">   -135.61208703 </i>
    <i name="e_wo_entrp">   -135.51456691 </i>
    <i name="e_0_energy">   -135.56332697 </i>
   </energy>
  </scstep>
  <scstep>
   <time name="dav">    4.55    4.55</time>
   <time name="total">    5.04    5.25</time>
   <dipole>
    <v name="dipole">      0.00000000       0.00000000       0.24328353 </v>
    <i name="Tr[quadrupol]">  -5711.80680348 </i>
    <i name="Echarged">      0.00000000 </i>
    <i name="Edipol_quadrupol">      0.00000000 </i>
    <i name="Eion">      0.00000000 </i>
   </dipole>
   <energy>
    <i name="e_fr_energy">   -135.61192118 </i>
    <i name="e_wo_entrp">   -135.51437283 </i>
    <i name="e_0_energy">   -135.56314700 </i>
   </energy>
  </scstep>
  <scstep>
   <time name="dav">    5.23    5.24</time>
   <time name="total">    5.72    5.82</time>
   <dipole>
    <v name="dipole">      0.00000000       0.00000000       0.24502223 </v>
    <i name="Tr[quadrupol]">  -5711.81369684 </i>
    <i name="Echarged">      0.00000000 </i>
    <i name="Edipol_quadrupol">      0.00000000 </i>
    <i name="Eion">      0.00000000 </i>
   </dipole>
   <energy>
    <i name="e_fr_energy">   -135.61069592 </i>
    <i name="e_wo_entrp">   -135.51409830 </i>
    <i name="e_0_energy">   -135.56239711 </i>
   </energy>
  </scstep>
  <scstep>
   <time name="dav">    5.02    5.02</time>
   <time name="total">    5.51    5.68</time>
   <dipole>
    <v name="dipole">      0.00000000       0.00000000       0.24505222 </v>
    <i name="Tr[quadrupol]">  -5711.64407100 </i>
    <i name="Echarged">      0.00000000 </i>
    <i name="Edipol_quadrupol">      0.00000000 </i>
    <i name="Eion">      0.00000000 </i>
   </dipole>
   <energy>
    <i name="e_fr_energy">   -135.61088681 </i>
    <i name="e_wo_entrp">   -135.51413279 </i>
    <i name="e_0_energy">   -135.56250980 </i>
   </energy>
  </scstep>
  <scstep>
   <time name="dav">    4.33    4.34</time>
   <time name="total">    4.83    5.03</time>
   <dipole>
    <v name="dipole">      0.00000000       0.00000000       0.24461635 </v>
    <i name="Tr[quadrupol]">  -5711.57909404 </i>
    <i name="Echarged">      0.00000000 </i>
    <i name="Edipol_quadrupol">      0.00000000 </i>
    <i name="Eion">      0.00000000 </i>
   </dipole>
   <energy>
    <i name="e_fr_energy">   -135.61092620 </i>
    <i name="e_wo_entrp">   -135.51401129 </i>
    <i name="e_0_energy">   -135.56246875 </i>
   </energy>
  </scstep>
  <scstep>
   <time name="dav">    3.87    3.87</time>
   <time name="total">    4.36    4.46</time>
   <dipole>
    <v name="dipole">      0.00000000       0.00000000       0.24432272 </v>
    <i name="Tr[quadrupol]">  -5711.47121697 </i>
    <i name="Echarged">      0.00000000 </i>
    <i name="Edipol_quadrupol">      0.00000000 </i>
    <i name="Eion">      0.00000000 </i>
   </dipole>
   <energy>
    <i name="e_fr_energy">   -135.61090881 </i>
    <i name="e_wo_entrp">   -135.51412142 </i>
    <i name="e_0_energy">   -135.56251512 </i>
   </energy>
  </scstep>
  <scstep>
   <time name="dav">    3.51    3.51</time>
   <time name="total">    3.76    3.87</time>
   <dipole>
    <v name="dipole">      0.00000000       0.00000000       0.24371399 </v>
    <i name="Tr[quadrupol]">  -5711.33371180 </i>
    <i name="Echarged">      0.00000000 </i>
    <i name="Edipol_quadrupol">      0.00000000 </i>
    <i name="Eion">      0.00000000 </i>
   </dipole>
   <energy>
    <i name="alphaZ">   1854.82572132 </i>
    <i name="ewald"> 635842.36587526 </i>
    <i name="hartreedc">-767753.41425322 </i>
    <i name="XCdc">   3872.25425934 </i>
    <i name="pawpsdc"> 130242.82872569 </i>
    <i name="pawaedc">-135796.72243383 </i>
    <i name="eentropy">     -0.09671114 </i>
    <i name="bandstr"> -17012.64379859 </i>
    <i name="atom"> 148614.99170617 </i>
    <i name="e_fr_energy">   -135.61090898 </i>
    <i name="e_wo_entrp">   -135.51419784 </i>
    <i name="e_0_energy">   -135.56255341 </i>
   </energy>
  </scstep>
  <structure>
   <crystal>
    <varray name="basis" >
     <v>       7.52954187       0.00000000       0.00000000 </v>
     <v>       3.76477094       6.52077454       0.00000000 </v>
     <v>       0.00000000       0.00000000      26.20742281 </v>
    </varray>
    <i name="volume">   1286.74370507 </i>
    <varray name="rec_basis" >
     <v>       0.13281021      -0.07667801       0.00000000 </v>
     <v>       0.00000000       0.15335602       0.00000000 </v>
     <v>       0.00000000       0.00000000       0.03815713 </v>
    </varray>
   </crystal>
   <varray name="positions" >
    <v>       0.00000000       0.00000000       0.00000000 </v>
    <v>       0.00000000       0.33333333       0.00000000 </v>
    <v>       0.00000000       0.66666667       0.00000000 </v>
    <v>       0.33333333       0.00000000       0.00000000 </v>
    <v>       0.33333333       0.33333333       0.00000000 </v>
    <v>       0.33333333       0.66666667       0.00000000 </v>
    <v>       0.66666667       0.00000000       0.00000000 </v>
    <v>       0.66666667       0.33333333       0.00000000 </v>
    <v>       0.66666667       0.66666667       0.00000000 </v>
    <v>       0.11111111       0.11111111       0.07819471 </v>
    <v>       0.11111111       0.44444444       0.07819471 </v>
    <v>       0.11111111       0.77777778       0.07819471 </v>
    <v>       0.44444444       0.11111111       0.07819471 </v>
    <v>       0.44444444       0.44444444       0.07819471 </v>
    <v>       0.44444444       0.77777778       0.07819471 </v>
    <v>       0.77777778       0.11111111       0.07819471 </v>
    <v>       0.77777778       0.44444444       0.07819471 </v>
    <v>       0.77777778       0.77777778       0.07819471 </v>
    <v>       0.22183110       0.22183110       0.15705807 </v>
    <v>       0.22256740       0.55538297       0.15653417 </v>
    <v>       0.22183110       0.88967113       0.15705807 </v>
    <v>       0.55538297       0.22256740       0.15653417 </v>
    <v>       0.55538297       0.55538297       0.15653417 </v>
    <v>       0.55508624       0.88912355       0.15645293 </v>
    <v>       0.88967113       0.22183110       0.15705807 </v>
    <v>       0.88912355       0.55508624       0.15645293 </v>
    <v>       0.88912355       0.88912355       0.15645293 </v>
    <v>       0.99525710       0.99525710       0.23822140 </v>
    <v>       0.99525710       0.34281913       0.23822140 </v>
    <v>       0.99922239       0.66705547       0.23508540 </v>
    <v>       0.34281913       0.99525710       0.23822140 </v>
    <v>       0.33529811       0.33529811       0.23756027 </v>
    <v>       0.33529811       0.66273711       0.23756027 </v>
    <v>       0.66705547       0.99922239       0.23508540 </v>
    <v>       0.66273711       0.33529811       0.23756027 </v>
    <v>       0.66705547       0.66705547       0.23508540 </v>
    <v>       0.11111111       0.11111111       0.27853382 </v>
    <v>       0.44444444       0.44444444       0.32277309 </v>
   </varray>
  </structure>
  <varray name="forces" >
   <v>       0.02082213       0.01202166      -0.18656433 </v>
   <v>       0.00000000      -0.02404332      -0.18656433 </v>
   <v>      -0.01082911       0.00625219      -0.14888690 </v>
   <v>      -0.02082213       0.01202166      -0.18656433 </v>
   <v>       0.04297191       0.02480985      -0.15362745 </v>
   <v>       0.00000000      -0.04961969      -0.15362745 </v>
   <v>       0.00000000      -0.01250438      -0.14888690 </v>
   <v>      -0.04297191       0.02480985      -0.15362745 </v>
   <v>       0.01082911       0.00625219      -0.14888690 </v>
   <v>       0.00000000       0.00000000       0.08360969 </v>
   <v>       0.00578644      -0.00786441       0.16857573 </v>
   <v>       0.00970400      -0.00107900       0.16857573 </v>
   <v>      -0.00391756       0.00894341       0.16857573 </v>
   <v>       0.00000000       0.00000000       0.15817802 </v>
   <v>      -0.00970400      -0.00107900       0.16857573 </v>
   <v>       0.00391756       0.00894341       0.16857573 </v>
   <v>      -0.00578644      -0.00786441       0.16857573 </v>
   <v>       0.00000000       0.00000000       0.07107647 </v>
   <v>       0.06340322       0.03660586       0.08498917 </v>
   <v>       0.04466317      -0.02578629       0.05229803 </v>
   <v>       0.00000000      -0.07321173       0.08498917 </v>
   <v>       0.00000000       0.05157258       0.05229803 </v>
   <v>      -0.04466317      -0.02578629       0.05229803 </v>
   <v>       0.00447617      -0.00258432       0.03810666 </v>
   <v>      -0.06340322       0.03660586       0.08498917 </v>
   <v>       0.00000000       0.00516864       0.03810666 </v>
   <v>      -0.00447617      -0.00258432       0.03810666 </v>
   <v>      -0.00640230      -0.00369637      -0.03592276 </v>
   <v>       0.00000000       0.00739274      -0.03592276 </v>
   <v>       0.00687123      -0.00396711       0.07944857 </v>
   <v>       0.00640230      -0.00369637      -0.03592276 </v>
   <v>       0.16302535       0.09412273       0.84963265 </v>
   <v>       0.00000000      -0.18824546       0.84963265 </v>
   <v>       0.00000000       0.00793421       0.07944857 </v>
   <v>      -0.16302535       0.09412273       0.84963265 </v>
   <v>      -0.00687123      -0.00396711       0.07944857 </v>
   <v>       0.00000000       0.00000000       0.02525170 </v>
   <v>       0.00000000       0.00000000      -3.08799116 </v>
  </varray>
  <varray name="stress" >
   <v>      -9.94623735       0.00000000       0.00000000 </v>
   <v>       0.00000000      -9.94623735       0.00000000 </v>
   <v>       0.00000000       0.00000000     -14.89724721 </v>
  </varray>
  <energy>
   <i name="e_fr_energy">   -149.24116941 </i>
   <i name="e_wo_entrp">   -149.19281384 </i>
   <i name="e_0_energy">     -0.09671114 </i>
  </energy>
  <time name="totalsc">   96.03   98.75</time>
 </calculation>
 <calculation>
  <scstep>
   <time name="dav">    5.39    5.39</time>
   <time name="total">    5.88    5.88</time>
   <dipole>
    <v name="dipole">      0.00000000       0.00000000       0.24366098 </v>
    <i name="Tr[quadrupol]">  -5728.91946307 </i>
    <i name="Echarged">      0.00000000 </i>
    <i name="Edipol_quadrupol">      0.00000000 </i>
    <i name="Eion">      0.00000000 </i>
   </dipole>
   <energy>
    <i name="alphaZ">   1854.63728957 </i>
    <i name="ewald"> 632940.36125120 </i>
    <i name="hartreedc">-764853.02445755 </i>
    <i name="XCdc">   3872.64024544 </i>
    <i name="pawpsdc"> 130241.99539711 </i>
    <i name="pawaedc">-135795.89691167 </i>
    <i name="eentropy">     -0.07301457 </i>
    <i name="bandstr"> -16991.67613650 </i>
    <i name="atom"> 148614.99170617 </i>
    <i name="e_fr_energy">   -116.04463080 </i>
    <i name="e_wo_entrp">   -115.97161623 </i>
    <i name="e_0_energy">   -116.00812351 </i>
   </energy>
  </scstep>
  <scstep>
   <time name="dav">    4.98    4.98</time>
   <time name="total">    5.47    5.53</time>
   <dipole>
    <v name="dipole">      0.00000000       0.00000000       0.17583603 </v>
    <i name="Tr[quadrupol]">  -5728.58100401 </i>
    <i name="Echarged">      0.00000000 </i>
    <i name="Edipol_quadrupol">      0.00000000 </i>
    <i name="Eion">      0.00000000 </i>
   </dipole>
   <energy>
    <i name="e_fr_energy">   -139.27745127 </i>
    <i name="e_wo_entrp">   -139.21729074 </i>
    <i name="e_0_energy">   -139.24737101 </i>
   </energy>
  </scstep>
  <scstep>
   <time name="dav">    4.78    4.78</time>
   <time name="total">    5.28    5.38</time>
   <dipole>
    <v name="dipole">      0.00000000       0.00000000       0.68161254 </v>
    <i name="Tr[quadrupol]">  -5728.57350927 </i>
    <i name="Echarged">      0.00000000 </i>
    <i name="Edipol_quadrupol">      0.00000000 </i>
    <i name="Eion">      0.00000000 </i>
   </dipole>
   <energy>
    <i name="e_fr_energy">   -139.60336142 </i>
    <i name="e_wo_entrp">   -139.55009972 </i>
    <i name="e_0_energy">   -139.57673057 </i>
   </energy>
  </scstep>
  <scstep>
   <time name="dav">    5.05    5.05</time>
   <time name="total">    5.53    5.68</time>
   <dipole>
    <v name="dipole">      0.00000000       0.00000000      -0.34375938 </v>
    <i name="Tr[quadrupol]">  -5728.71906027 </i>
    <i name="Echarged">      0.00000000 </i>
    <i name="Edipol_quadrupol">      0.00000000 </i>
    <i name="Eion">      0.00000000 </i>
   </dipole>
   <energy>
    <i name="e_fr_energy">   -143.92688037 </i>
    <i name="e_wo_entrp">   -143.84221759 </i>
    <i name="e_0_energy">   -143.88454898 </i>
   </energy>
  </scstep>
  <scstep>
   <time name="dav">    5.10    5.11</time>
   <time name="total">    5.60    5.65</time>
   <dipole>
    <v name="dipole">      0.00000000       0.00000000       0.27206912 </v>
    <i name="Tr[quadrupol]">  -5728.68596171 </i>
    <i name="Echarged">      0.00000000 </i>
    <i name="Edipol_quadrupol">      0.00000000 </i>
    <i name="Eion">      0.00000000 </i>
   </dipole>
   <energy>
    <i name="e_fr_energy">   -137.22959061 </i>
    <i name="e_wo_entrp">   -137.15487689 </i>
    <i name="e_0_energy">   -137.19223375 </i>
   </energy>
  </scstep>
  <scstep>
   <time name="dav">    4.67    4.68</time>
   <time name="total">    5.16    5.28</time>
   <dipole>
    <v name="dipole">      0.00000000       0.00000000       0.27665664 </v>
    <i name="Tr[quadrupol]">  -5728.85388240 </i>
    <i name="Echarged">      0.00000000 </i>
    <i name="Edipol_quadrupol">      0.00000000 </i>
    <i name="Eion">      0.00000000 </i>
   </dipole>
   <energy>
    <i name="e_fr_energy">   -137.34205536 </i>
    <i name="e_wo_entrp">   -137.26169621 </i>
    <i name="e_0_energy">   -137.30187578 </i>
   </energy>
  </scstep>
  <scstep>
   <time name="dav">    4.73    4.73</time>
   <time name="total">    5.22    5.39</time>
   <dipole>
    <v name="dipole">      0.00000000       0.00000000       0.29903799 </v>
    <i name="Tr[quadrupol]">  -5729.06128110 </i>
    <i name="Echarged">      0.00000000 </i>
    <i name="Edipol_quadrupol">      0.00000000 </i>
    <i name="Eion">      0.00000000 </i>
   </dipole>
   <energy>
    <i name="e_fr_energy">   -137.35100741 </i>
    <i name="e_wo_entrp">   -137.26578117 </i>
    <i name="e_0_energy">   -137.30839429 </i>
   </energy>
  </scstep>
  <scstep>
   <time name="dav">    4.57    4.58</time>
   <time name="total">    5.06    5.20</time>
   <dipole>
    <v name="dipole">      0.00000000       0.00000000       0.29222636 </v>
    <i name="Tr[quadrupol]">  -5729.06987849 </i>
    <i name="Echarged">      0.00000000 </i>
    <i name="Edipol_quadrupol">      0.00000000 </i>
    <i name="Eion">      0.00000000 </i>
   </dipole>
   <energy>
    <i name="e_fr_energy">   -137.34817467 </i>
    <i name="e_wo_entrp">   -137.26543146 </i>
    <i name="e_0_energy">   -137.30680306 </i>
   </energy>
  </scstep>
  <scstep>
   <time name="dav">    4.90    4.90</time>
   <time name="total">    5.39    5.49</time>
   <dipole>
    <v name="dipole">      0.00000000       0.00000000       0.25918198 </v>
    <i name="Tr[quadrupol]">  -5729.18479251 </i>
    <i name="Echarged">      0.00000000 </i>
    <i name="Edipol_quadrupol">      0.00000000 </i>
    <i name="Eion">      0.00000000 </i>
   </dipole>
   <energy>
    <i name="e_fr_energy">   -137.36438717 </i>
    <i name="e_wo_entrp">   -137.28103879 </i>
    <i name="e_0_energy">   -137.32271298 </i>
   </energy>
  </scstep>
  <scstep>
   <time name="dav">    5.50    5.50</time>
   <time name="total">    5.99    6.18</time>
   <dipole>
    <v name="dipole">      0.00000000       0.00000000       0.25700461 </v>
    <i name="Tr[quadrupol]">  -5729.10200534 </i>
    <i name="Echarged">      0.00000000 </i>
    <i name="Edipol_quadrupol">      0.00000000 </i>
    <i name="Eion">      0.00000000 </i>
   </dipole>
   <energy>
    <i name="e_fr_energy">   -137.35035522 </i>
    <i name="e_wo_entrp">   -137.27007657 </i>
    <i name="e_0_energy">   -137.31021589 </i>
   </energy>
  </scstep>
  <scstep>
   <time name="dav">    5.09    5.09</time>
   <time name="total">    5.58    5.64</time>
   <dipole>
    <v name="dipole">      0.00000000       0.00000000       0.28264585 </v>
    <i name="Tr[quadrupol]">  -5729.13011293 </i>
    <i name="Echarged">      0.00000000 </i>
    <i name="Edipol_quadrupol">      0.00000000 </i>
    <i name="Eion">      0.00000000 </i>
   </dipole>
   <energy>
    <i name="e_fr_energy">   -137.32930454 </i>
    <i name="e_wo_entrp">   -137.24435570 </i>
    <i name="e_0_energy">   -137.28683012 </i>
   </energy>
  </scstep>
  <scstep>
   <time name="dav">    4.60    4.60</time>
   <time name="total">    5.09    5.20</time>
   <dipole>
    <v name="dipole">      0.00000000       0.00000000       0.28197293 </v>
    <i name="Tr[quadrupol]">  -5729.01281034 </i>
    <i name="Echarged">      0.00000000 </i>
    <i name="Edipol_quadrupol">      0.00000000 </i>
    <i name="Eion">      0.00000000 </i>
   </dipole>
   <energy>
    <i name="e_fr_energy">   -137.32938559 </i>
    <i name="e_wo_entrp">   -137.24315491 </i>
    <i name="e_0_energy">   -137.28627025 </i>
   </energy>
  </scstep>
  <scstep>
   <time name="dav">    4.64    4.65</time>
   <time name="total">    5.13    5.24</time>
   <dipole>
    <v name="dipole">      0.00000000       0.00000000       0.28383005 </v>
    <i name="Tr[quadrupol]">  -5728.87638149 </i>
    <i name="Echarged">      0.00000000 </i>
    <i name="Edipol_quadrupol">      0.00000000 </i>
    <i name="Eion">      0.00000000 </i>
   </dipole>
   <energy>
    <i name="e_fr_energy">   -137.33092917 </i>
    <i name="e_wo_entrp">   -137.24454604 </i>
    <i name="e_0_energy">   -137.28773761 </i>
   </energy>
  </scstep>
  <scstep>
   <time name="dav">    4.70    4.70</time>
   <time name="total">    5.19    5.29</time>
   <dipole>
    <v name="dipole">      0.00000000       0.00000000       0.28195734 </v>
    <i name="Tr[quadrupol]">  -5728.84756668 </i>
    <i name="Echarged">      0.00000000 </i>
    <i name="Edipol_quadrupol">      0.00000000 </i>
    <i name="Eion">      0.00000000 </i>
   </dipole>
   <energy>
    <i name="e_fr_energy">   -137.33088704 </i>
    <i name="e_wo_entrp">   -137.24455254 </i>
    <i name="e_0_energy">   -137.28771979 </i>
   </energy>
  </scstep>
  <scstep>
   <time name="dav">    4.48    4.48</time>
   <time name="total">    4.97    5.07</time>
   <dipole>
    <v name="dipole">      0.00000000       0.00000000       0.27497294 </v>
    <i name="Tr[quadrupol]">  -5728.81776698 </i>
    <i name="Echarged">      0.00000000 </i>
    <i name="Edipol_quadrupol">      0.00000000 </i>
    <i name="Eion">      0.00000000 </i>
   </dipole>
   <energy>
    <i name="e_fr_energy">   -137.32762160 </i>
    <i name="e_wo_entrp">   -137.24225535 </i>
    <i name="e_0_energy">   -137.28493847 </i>
   </energy>
  </scstep>
  <scstep>
   <time name="dav">    4.71    4.71</time>
   <time name="total">    5.20    5.30</time>
   <dipole>
    <v name="dipole">      0.00000000       0.00000000       0.26596765 </v>
    <i name="Tr[quadrupol]">  -5728.67355360 </i>
    <i name="Echarged">      0.00000000 </i>
    <i name="Edipol_quadrupol">      0.00000000 </i>
    <i name="Eion">      0.00000000 </i>
   </dipole>
   <energy>
    <i name="e_fr_energy">   -137.32583911 </i>
    <i name="e_wo_entrp">   -137.24125048 </i>
    <i name="e_0_energy">   -137.28354480 </i>
   </energy>
  </scstep>
  <scstep>
   <time name="dav">    4.57    4.57</time>
   <time name="total">    5.07    5.29</time>
   <dipole>
    <v name="dipole">      0.00000000       0.00000000       0.26623838 </v>
    <i name="Tr[quadrupol]">  -5728.65091612 </i>
    <i name="Echarged">      0.00000000 </i>
    <i name="Edipol_quadrupol">      0.00000000 </i>
    <i name="Eion">      0.00000000 </i>
   </dipole>
   <energy>
    <i name="e_fr_energy">   -137.32590616 </i>
    <i name="e_wo_entrp">   -137.24142681 </i>
    <i name="e_0_energy">   -137.28366649 </i>
   </energy>
  </scstep>
  <scstep>
   <time name="dav">    4.40    4.40</time>
   <time name="total">    4.89    5.00</time>
   <dipole>
    <v name="dipole">      0.00000000       0.00000000       0.26603166 </v>
    <i name="Tr[quadrupol]">  -5728.53968988 </i>
    <i name="Echarged">      0.00000000 </i>
    <i name="Edipol_quadrupol">      0.00000000 </i>
    <i name="Eion">      0.00000000 </i>
   </dipole>
   <energy>
    <i name="e_fr_energy">   -137.32584313 </i>
    <i name="e_wo_entrp">   -137.24121339 </i>
    <i name="e_0_energy">   -137.28352826 </i>
   </energy>
  </scstep>
  <scstep>
   <time name="dav">    4.68    4.69</time>
   <time name="total">    5.17    5.29</time>
   <dipole>
    <v name="dipole">      0.00000000       0.00000000       0.26725789 </v>
    <i name="Tr[quadrupol]">  -5729.20553661 </i>
    <i name="Echarged">      0.00000000 </i>
    <i name="Edipol_quadrupol">      0.00000000 </i>
    <i name="Eion">      0.00000000 </i>
   </dipole>
   <energy>
    <i name="e_fr_energy">   -137.32584097 </i>
    <i name="e_wo_entrp">   -137.24102330 </i>
    <i name="e_0_energy">   -137.28343214 </i>
   </energy>
  </scstep>
  <scstep>
   <time name="dav">    4.61    4.61</time>
   <time name="total">    5.10    5.20</time>
   <dipole>
    <v name="dipole">      0.00000000       0.00000000       0.26663520 </v>
    <i name="Tr[quadrupol]">  -5729.45663187 </i>
    <i name="Echarged">      0.00000000 </i>
    <i name="Edipol_quadrupol">      0.00000000 </i>
    <i name="Eion">      0.00000000 </i>
   </dipole>
   <energy>
    <i name="e_fr_energy">   -137.32572773 </i>
    <i name="e_wo_entrp">   -137.24093971 </i>
    <i name="e_0_energy">   -137.28333372 </i>
   </energy>
  </scstep>
  <scstep>
   <time name="dav">    4.87    4.87</time>
   <time name="total">    5.36    5.47</time>
   <dipole>
    <v name="dipole">      0.00000000       0.00000000       0.26453501 </v>
    <i name="Tr[quadrupol]">  -5729.48073302 </i>
    <i name="Echarged">      0.00000000 </i>
    <i name="Edipol_quadrupol">      0.00000000 </i>
    <i name="Eion">      0.00000000 </i>
   </dipole>
   <energy>
    <i name="e_fr_energy">   -137.32578201 </i>
    <i name="e_wo_entrp">   -137.24107848 </i>
    <i name="e_0_energy">   -137.28343025 </i>
   </energy>
  </scstep>
  <scstep>
[...]
        <r>  0.0003  0.0013  0.0026 </r>
        <r>  0.0012  0.0016  0.0035 </r>
        <r>  0.0044  0.0018  0.0009 </r>
        <r>  0.0025  0.0037  0.0016 </r>
        <r>  0.0003  0.0004  0.0029 </r>
        <r>  0.0044  0.0018  0.0009 </r>
        <r>  0.0000  0.0025  0.0012 </r>
        <r>  0.0012  0.0016  0.0035 </r>
        <r>  0.0005  0.0011  0.0025 </r>
        <r>  0.0000  0.0025  0.0012 </r>
        <r>  0.0005  0.0007  0.0047 </r>
        <r>  0.0001  0.0013  0.0004 </r>
        <r>  0.0023  0.0020  0.0021 </r>
        <r>  0.0005  0.0007  0.0047 </r>
        <r>  0.0042  0.0017  0.0022 </r>
        <r>  0.0064  0.0043  0.0010 </r>
        <r>  0.0000  0.0008  0.0052 </r>
        <r>  0.0042  0.0017  0.0022 </r>
        <r>  0.0023  0.0020  0.0021 </r>
        <r>  0.0009  0.0035  0.0000 </r>
        <r>  0.0006  0.0043  0.0000 </r>
       </set>
       <set comment="band 364">
        <r>  0.0005  0.0010  0.0015 </r>
        <r>  0.0012  0.0001  0.0019 </r>
        <r>  0.0002  0.0022  0.0018 </r>
        <r>  0.0005  0.0010  0.0015 </r>
        <r>  0.0006  0.0042  0.0023 </r>
        <r>  0.0000  0.0045  0.0013 </r>
        <r>  0.0003  0.0002  0.0018 </r>
        <r>  0.0006  0.0042  0.0023 </r>
        <r>  0.0002  0.0022  0.0018 </r>
        <r>  0.0001  0.0066  0.0028 </r>
        <r>  0.0003  0.0051  0.0035 </r>
        <r>  0.0004  0.0014  0.0033 </r>
        <r>  0.0047  0.0019  0.0017 </r>
        <r>  0.0015  0.0013  0.0037 </r>
        <r>  0.0004  0.0014  0.0033 </r>
        <r>  0.0047  0.0019  0.0017 </r>
        <r>  0.0003  0.0051  0.0035 </r>
        <r>  0.0033  0.0004  0.0026 </r>
        <r>  0.0049  0.0023  0.0050 </r>
        <r>  0.0043  0.0006  0.0051 </r>
        <r>  0.0103  0.0013  0.0022 </r>
        <r>  0.0018  0.0005  0.0050 </r>
        <r>  0.0043  0.0006  0.0051 </r>
        <r>  0.0017  0.0015  0.0039 </r>
        <r>  0.0049  0.0023  0.0050 </r>
        <r>  0.0007  0.0033  0.0062 </r>
        <r>  0.0017  0.0015  0.0039 </r>
        <r>  0.0016  0.0019  0.0047 </r>
        <r>  0.0056  0.0031  0.0072 </r>
        <r>  0.0143  0.0012  0.0047 </r>
        <r>  0.0016  0.0019  0.0047 </r>
        <r>  0.0034  0.0070  0.0046 </r>
        <r>  0.0104  0.0007  0.0049 </r>
        <r>  0.0024  0.0053  0.0045 </r>
        <r>  0.0034  0.0070  0.0046 </r>
        <r>  0.0143  0.0012  0.0047 </r>
        <r>  0.0007  0.0043  0.0000 </r>
        <r>  0.0106  0.0006  0.0000 </r>
       </set>
       <set comment="band 365">
        <r>  0.0004  0.0029  0.0032 </r>
        <r>  0.0000  0.0068  0.0025 </r>
        <r>  0.0047  0.0025  0.0062 </r>
        <r>  0.0004  0.0029  0.0032 </r>
        <r>  0.0000  0.0051  0.0019 </r>
        <r>  0.0013  0.0020  0.0035 </r>
        <r>  0.0014  0.0069  0.0016 </r>
        <r>  0.0000  0.0051  0.0019 </r>
        <r>  0.0047  0.0025  0.0062 </r>
        <r>  0.0003  0.0012  0.0014 </r>
        <r>  0.0010  0.0044  0.0053 </r>
        <r>  0.0035  0.0023  0.0032 </r>
        <r>  0.0002  0.0047  0.0021 </r>
        <r>  0.0055  0.0014  0.0029 </r>
        <r>  0.0035  0.0023  0.0032 </r>
        <r>  0.0002  0.0047  0.0021 </r>
        <r>  0.0010  0.0044  0.0053 </r>
        <r>  0.0096  0.0095  0.0029 </r>
        <r>  0.0013  0.0013  0.0048 </r>
        <r>  0.0001  0.0018  0.0041 </r>
        <r>  0.0060  0.0041  0.0012 </r>
        <r>  0.0085  0.0002  0.0030 </r>
        <r>  0.0001  0.0018  0.0041 </r>
        <r>  0.0008  0.0029  0.0024 </r>
        <r>  0.0013  0.0013  0.0048 </r>
        <r>  0.0035  0.0007  0.0034 </r>
        <r>  0.0008  0.0029  0.0024 </r>
        <r>  0.0074  0.0012  0.0024 </r>
        <r>  0.0012  0.0070  0.0007 </r>
        <r>  0.0032  0.0101  0.0013 </r>
        <r>  0.0074  0.0012  0.0024 </r>
        <r>  0.0022  0.0052  0.0018 </r>
        <r>  0.0015  0.0111  0.0009 </r>
        <r>  0.0001  0.0015  0.0021 </r>
        <r>  0.0022  0.0052  0.0018 </r>
        <r>  0.0032  0.0101  0.0013 </r>
        <r>  0.0055  0.0017  0.0000 </r>
        <r>  0.0000  0.0026  0.0000 </r>
       </set>
       <set comment="band 366">
        <r>  0.0021  0.0065  0.0038 </r>
        <r>  0.0046  0.0030  0.0060 </r>
        <r>  0.0022  0.0072  0.0031 </r>
        <r>  0.0021  0.0065  0.0038 </r>
        <r>  0.0021  0.0055  0.0039 </r>
        <r>  0.0026  0.0036  0.0042 </r>
        <r>  0.0017  0.0032  0.0057 </r>
        <r>  0.0021  0.0055  0.0039 </r>
        <r>  0.0022  0.0072  0.0031 </r>
        <r>  0.0026  0.0041  0.0037 </r>
        <r>  0.0021  0.0047  0.0056 </r>
        <r>  0.0004  0.0046  0.0033 </r>
        <r>  0.0038  0.0039  0.0054 </r>
        <r>  0.0011  0.0040  0.0044 </r>
        <r>  0.0004  0.0046  0.0033 </r>
        <r>  0.0038  0.0039  0.0054 </r>
        <r>  0.0021  0.0047  0.0056 </r>
        <r>  0.0050  0.0070  0.0027 </r>
        <r>  0.0004  0.0044  0.0056 </r>
        <r>  0.0029  0.0025  0.0057 </r>
        <r>  0.0001  0.0001  0.0050 </r>
        <r>  0.0050  0.0023  0.0050 </r>
        <r>  0.0029  0.0025  0.0057 </r>
        <r>  0.0033  0.0035  0.0026 </r>
        <r>  0.0004  0.0044  0.0056 </r>
        <r>  0.0043  0.0016  0.0038 </r>
        <r>  0.0033  0.0035  0.0026 </r>
        <r>  0.0028  0.0050  0.0058 </r>
        <r>  0.0034  0.0055  0.0038 </r>
        <r>  0.0000  0.0062  0.0032 </r>
        <r>  0.0028  0.0050  0.0058 </r>
        <r>  0.0062  0.0055  0.0034 </r>
        <r>  0.0002  0.0074  0.0043 </r>
        <r>  0.0056  0.0031  0.0070 </r>
        <r>  0.0062  0.0055  0.0034 </r>
        <r>  0.0000  0.0062  0.0032 </r>
        <r>  0.0000  0.0009  0.0000 </r>
        <r>  0.0038  0.0011  0.0000 </r>
       </set>
       <set comment="band 367">
        <r>  0.0010  0.0029  0.0033 </r>
        <r>  0.0004  0.0014  0.0014 </r>
        <r>  0.0015  0.0031  0.0012 </r>
        <r>  0.0010  0.0029  0.0033 </r>
        <r>  0.0031  0.0019  0.0042 </r>
        <r>  0.0040  0.0078  0.0018 </r>
        <r>  0.0013  0.0013  0.0010 </r>
        <r>  0.0031  0.0019  0.0042 </r>
        <r>  0.0015  0.0031  0.0012 </r>
        <r>  0.0110  0.0012  0.0058 </r>
        <r>  0.0026  0.0019  0.0021 </r>
        <r>  0.0011  0.0026  0.0026 </r>
        <r>  0.0077  0.0027  0.0066 </r>
        <r>  0.0032  0.0068  0.0030 </r>
        <r>  0.0011  0.0026  0.0026 </r>
        <r>  0.0077  0.0027  0.0066 </r>
        <r>  0.0026  0.0019  0.0021 </r>
        <r>  0.0009  0.0013  0.0016 </r>
        <r>  0.0001  0.0034  0.0034 </r>
        <r>  0.0025  0.0047  0.0024 </r>
        <r>  0.0046  0.0026  0.0046 </r>
        <r>  0.0010  0.0018  0.0017 </r>
        <r>  0.0025  0.0047  0.0024 </r>
        <r>  0.0089  0.0018  0.0048 </r>
        <r>  0.0001  0.0034  0.0034 </r>
        <r>  0.0021  0.0087  0.0023 </r>
        <r>  0.0089  0.0018  0.0048 </r>
        <r>  0.0007  0.0039  0.0021 </r>
        <r>  0.0020  0.0021  0.0019 </r>
        <r>  0.0038  0.0009  0.0034 </r>
        <r>  0.0007  0.0039  0.0021 </r>
        <r>  0.0001  0.0042  0.0026 </r>
        <r>  0.0005  0.0003  0.0016 </r>
        <r>  0.0003  0.0050  0.0031 </r>
        <r>  0.0001  0.0042  0.0026 </r>
        <r>  0.0038  0.0009  0.0034 </r>
        <r>  0.0001  0.0048  0.0000 </r>
        <r>  0.0001  0.0004  0.0000 </r>
       </set>
       <set comment="band 368">
        <r>  0.0023  0.0012  0.0016 </r>
        <r>  0.0003  0.0030  0.0005 </r>
        <r>  0.0000  0.0017  0.0027 </r>
        <r>  0.0023  0.0012  0.0016 </r>
        <r>  0.0006  0.0018  0.0009 </r>
        <r>  0.0016  0.0065  0.0012 </r>
        <r>  0.0015  0.0038  0.0017 </r>
        <r>  0.0006  0.0018  0.0009 </r>
        <r>  0.0000  0.0017  0.0027 </r>
        <r>  0.0017  0.0042  0.0007 </r>
        <r>  0.0018  0.0019  0.0030 </r>
        <r>  0.0039  0.0025  0.0052 </r>
        <r>  0.0004  0.0016  0.0009 </r>
        <r>  0.0071  0.0017  0.0040 </r>
        <r>  0.0039  0.0025  0.0052 </r>
        <r>  0.0004  0.0016  0.0009 </r>
        <r>  0.0018  0.0019  0.0030 </r>
        <r>  0.0079  0.0016  0.0038 </r>
        <r>  0.0031  0.0014  0.0026 </r>
        <r>  0.0004  0.0008  0.0039 </r>
        <r>  0.0012  0.0019  0.0013 </r>
        <r>  0.0019  0.0040  0.0023 </r>
        <r>  0.0004  0.0008  0.0039 </r>
        <r>  0.0020  0.0046  0.0029 </r>
        <r>  0.0031  0.0014  0.0026 </r>
        <r>  0.0051  0.0010  0.0013 </r>
        <r>  0.0020  0.0046  0.0029 </r>
        <r>  0.0017  0.0022  0.0004 </r>
        <r>  0.0001  0.0004  0.0012 </r>
        <r>  0.0006  0.0048  0.0012 </r>
        <r>  0.0017  0.0022  0.0004 </r>
        <r>  0.0001  0.0012  0.0018 </r>
        <r>  0.0004  0.0006  0.0014 </r>
        <r>  0.0002  0.0027  0.0034 </r>
        <r>  0.0001  0.0012  0.0018 </r>
        <r>  0.0006  0.0048  0.0012 </r>
        <r>  0.0004  0.0026  0.0000 </r>
        <r>  0.0004  0.0020  0.0000 </r>
       </set>
       <set comment="band 369">
        <r>  0.0002  0.0012  0.0005 </r>
        <r>  0.0014  0.0051  0.0012 </r>
        <r>  0.0004  0.0018  0.0021 </r>
        <r>  0.0002  0.0012  0.0005 </r>
        <r>  0.0002  0.0019  0.0023 </r>
        <r>  0.0007  0.0015  0.0023 </r>
        <r>  0.0000  0.0033  0.0012 </r>
        <r>  0.0002  0.0019  0.0023 </r>
        <r>  0.0004  0.0018  0.0021 </r>
        <r>  0.0081  0.0023  0.0013 </r>
        <r>  0.0015  0.0014  0.0057 </r>
        <r>  0.0038  0.0013  0.0018 </r>
        <r>  0.0023  0.0021  0.0018 </r>
        <r>  0.0002  0.0041  0.0053 </r>
        <r>  0.0038  0.0013  0.0018 </r>
        <r>  0.0023  0.0021  0.0018 </r>
        <r>  0.0015  0.0014  0.0057 </r>
        <r>  0.0019  0.0004  0.0026 </r>
        <r>  0.0032  0.0015  0.0071 </r>
        <r>  0.0084  0.0007  0.0029 </r>
        <r>  0.0005  0.0015  0.0028 </r>
        <r>  0.0005  0.0009  0.0087 </r>
        <r>  0.0084  0.0007  0.0029 </r>
        <r>  0.0012  0.0012  0.0023 </r>
        <r>  0.0032  0.0015  0.0071 </r>
        <r>  0.0045  0.0002  0.0038 </r>
        <r>  0.0012  0.0012  0.0023 </r>
        <r>  0.0007  0.0012  0.0037 </r>
        <r>  0.0003  0.0007  0.0040 </r>
        <r>  0.0004  0.0025  0.0026 </r>
        <r>  0.0007  0.0012  0.0037 </r>
        <r>  0.0030  0.0064  0.0022 </r>
        <r>  0.0022  0.0025  0.0018 </r>
        <r>  0.0002  0.0002  0.0049 </r>
        <r>  0.0030  0.0064  0.0022 </r>
        <r>  0.0004  0.0025  0.0026 </r>
        <r>  0.0018  0.0014  0.0000 </r>
        <r>  0.0006  0.0018  0.0000 </r>
       </set>
       <set comment="band 370">
        <r>  0.0016  0.0034  0.0041 </r>
        <r>  0.0014  0.0013  0.0008 </r>
        <r>  0.0022  0.0030  0.0028 </r>
        <r>  0.0016  0.0034  0.0041 </r>
        <r>  0.0015  0.0043  0.0011 </r>
        <r>  0.0006  0.0027  0.0046 </r>
        <r>  0.0002  0.0005  0.0051 </r>
        <r>  0.0015  0.0043  0.0011 </r>
        <r>  0.0022  0.0030  0.0028 </r>
        <r>  0.0003  0.0036  0.0040 </r>
        <r>  0.0019  0.0028  0.0013 </r>
        <r>  0.0050  0.0040  0.0073 </r>
        <r>  0.0034  0.0016  0.0021 </r>
        <r>  0.0071  0.0021  0.0005 </r>
        <r>  0.0050  0.0040  0.0073 </r>
        <r>  0.0034  0.0016  0.0021 </r>
        <r>  0.0019  0.0028  0.0013 </r>
        <r>  0.0001  0.0025  0.0070 </r>
        <r>  0.0002  0.0023  0.0028 </r>
        <r>  0.0005  0.0010  0.0066 </r>
        <r>  0.0037  0.0017  0.0025 </r>
        <r>  0.0018  0.0034  0.0026 </r>
        <r>  0.0005  0.0010  0.0066 </r>
        <r>  0.0017  0.0023  0.0031 </r>
        <r>  0.0002  0.0023  0.0028 </r>
        <r>  0.0009  0.0007  0.0060 </r>
        <r>  0.0017  0.0023  0.0031 </r>
        <r>  0.0008  0.0025  0.0020 </r>
        <r>  0.0004  0.0020  0.0048 </r>
        <r>  0.0001  0.0039  0.0020 </r>
        <r>  0.0008  0.0025  0.0020 </r>
        <r>  0.0000  0.0019  0.0039 </r>
        <r>  0.0002  0.0098  0.0009 </r>
        <r>  0.0003  0.0055  0.0016 </r>
        <r>  0.0000  0.0019  0.0039 </r>
        <r>  0.0001  0.0039  0.0020 </r>
        <r>  0.0000  0.0043  0.0000 </r>
        <r>  0.0009  0.0043  0.0000 </r>
       </set>
       <set comment="band 371">
        <r>  0.0005  0.0026  0.0009 </r>
        <r>  0.0004  0.0026  0.0018 </r>
        <r>  0.0006  0.0006  0.0017 </r>
        <r>  0.0005  0.0026  0.0009 </r>
        <r>  0.0008  0.0005  0.0013 </r>
        <r>  0.0005  0.0008  0.0008 </r>
        <r>  0.0004  0.0015  0.0004 </r>
        <r>  0.0008  0.0005  0.0013 </r>
        <r>  0.0006  0.0006  0.0017 </r>
        <r>  0.0000  0.0021  0.0016 </r>
        <r>  0.0016  0.0033  0.0005 </r>
        <r>  0.0024  0.0007  0.0013 </r>
        <r>  0.0002  0.0007  0.0015 </r>
        <r>  0.0004  0.0013  0.0010 </r>
        <r>  0.0024  0.0007  0.0013 </r>
        <r>  0.0002  0.0007  0.0015 </r>
        <r>  0.0016  0.0033  0.0005 </r>
        <r>  0.0002  0.0033  0.0012 </r>
        <r>  0.0012  0.0006  0.0006 </r>
        <r>  0.0011  0.0003  0.0024 </r>
        <r>  0.0002  0.0006  0.0020 </r>
        <r>  0.0001  0.0005  0.0023 </r>
        <r>  0.0011  0.0003  0.0024 </r>
        <r>  0.0036  0.0016  0.0020 </r>
        <r>  0.0012  0.0006  0.0006 </r>
        <r>  0.0031  0.0022  0.0024 </r>
        <r>  0.0036  0.0016  0.0020 </r>
        <r>  0.0002  0.0007  0.0016 </r>
        <r>  0.0010  0.0004  0.0013 </r>
        <r>  0.0067  0.0011  0.0025 </r>
        <r>  0.0002  0.0007  0.0016 </r>
        <r>  0.0009  0.0008  0.0017 </r>
        <r>  0.0002  0.0027  0.0033 </r>
        <r>  0.0007  0.0032  0.0010 </r>
        <r>  0.0009  0.0008  0.0017 </r>
        <r>  0.0067  0.0011  0.0025 </r>
        <r>  0.0016  0.0022  0.0000 </r>
        <r>  0.0012  0.0007  0.0000 </r>
       </set>
       <set comment="band 372">
        <r>  0.0013  0.0015  0.0022 </r>
        <r>  0.0000  0.0004  0.0050 </r>
        <r>  0.0020  0.0028  0.0024 </r>
        <r>  0.0013  0.0015  0.0022 </r>
        <r>  0.0013  0.0028  0.0020 </r>
        <r>  0.0000  0.0013  0.0012 </r>
        <r>  0.0016  0.0084  0.0019 </r>
        <r>  0.0013  0.0028  0.0020 </r>
        <r>  0.0020  0.0028  0.0024 </r>
        <r>  0.0001  0.0020  0.0023 </r>
        <r>  0.0047  0.0021  0.0046 </r>
        <r>  0.0052  0.0022  0.0011 </r>
        <r>  0.0004  0.0020  0.0046 </r>
        <r>  0.0000  0.0026  0.0020 </r>
        <r>  0.0052  0.0022  0.0011 </r>
        <r>  0.0004  0.0020  0.0046 </r>
        <r>  0.0047  0.0021  0.0046 </r>
        <r>  0.0009  0.0017  0.0042 </r>
        <r>  0.0062  0.0013  0.0016 </r>
        <r>  0.0021  0.0023  0.0035 </r>
        <r>  0.0004  0.0035  0.0032 </r>
        <r>  0.0000  0.0017  0.0034 </r>
        <r>  0.0021  0.0023  0.0035 </r>
        <r>  0.0005  0.0044  0.0055 </r>
        <r>  0.0062  0.0013  0.0016 </r>
        <r>  0.0007  0.0046  0.0027 </r>
        <r>  0.0005  0.0044  0.0055 </r>
        <r>  0.0010  0.0016  0.0032 </r>
        <r>  0.0017  0.0008  0.0059 </r>
        <r>  0.0017  0.0023  0.0043 </r>
        <r>  0.0010  0.0016  0.0032 </r>
        <r>  0.0035  0.0040  0.0023 </r>
        <r>  0.0005  0.0010  0.0018 </r>
        <r>  0.0010  0.0044  0.0024 </r>
        <r>  0.0035  0.0040  0.0023 </r>
        <r>  0.0017  0.0023  0.0043 </r>
        <r>  0.0004  0.0045  0.0000 </r>
        <r>  0.0005  0.0060  0.0000 </r>
       </set>
      </set>
     </set>
    </set>
   </array>
  </projected>
 </calculation>
 <structure name="finalpos" >
  <crystal>
   <varray name="basis" >
    <v>       7.52954187       0.00000000       0.00000000 </v>
    <v>       3.76477094       6.52077454       0.00000000 </v>
    <v>       0.00000000       0.00000000      26.20742281 </v>
   </varray>
   <i name="volume">   1286.74370507 </i>
   <varray name="rec_basis" >
    <v>       0.13281021      -0.07667801       0.00000000 </v>
    <v>       0.00000000       0.15335602       0.00000000 </v>
    <v>       0.00000000       0.00000000       0.03815713 </v>
   </varray>
  </crystal>
  <varray name="positions" >
   <v>       0.00000000       0.00000000       0.00000000 </v>
   <v>       0.00000000       0.33333333       0.00000000 </v>
   <v>       0.00000000       0.66666667       0.00000000 </v>
   <v>       0.33333333       0.00000000       0.00000000 </v>
   <v>       0.33333333       0.33333333       0.00000000 </v>
   <v>       0.33333333       0.66666667       0.00000000 </v>
   <v>       0.66666667       0.00000000       0.00000000 </v>
   <v>       0.66666667       0.33333333       0.00000000 </v>
   <v>       0.66666667       0.66666667       0.00000000 </v>
   <v>       0.11111111       0.11111111       0.07819471 </v>
   <v>       0.11111111       0.44444444       0.07819471 </v>
   <v>       0.11111111       0.77777778       0.07819471 </v>
   <v>       0.44444444       0.11111111       0.07819471 </v>
   <v>       0.44444444       0.44444444       0.07819471 </v>
   <v>       0.44444444       0.77777778       0.07819471 </v>
   <v>       0.77777778       0.11111111       0.07819471 </v>
   <v>       0.77777778       0.44444444       0.07819471 </v>
   <v>       0.77777778       0.77777778       0.07819471 </v>
   <v>       0.22233353       0.22233353       0.15668349 </v>
   <v>       0.22427592       0.55452871       0.15751440 </v>
   <v>       0.22233353       0.88866627       0.15668349 </v>
   <v>       0.55452871       0.22427592       0.15751440 </v>
   <v>       0.55452871       0.55452871       0.15751440 </v>
   <v>       0.55606236       0.88863549       0.15642038 </v>
   <v>       0.88866627       0.22233353       0.15668349 </v>
   <v>       0.88863549       0.55606236       0.15642038 </v>
   <v>       0.88863549       0.88863549       0.15642038 </v>
   <v>       0.99577643       0.99577643       0.23645966 </v>
   <v>       0.99577643       0.34178047       0.23645966 </v>
   <v>      -0.00153843       0.66743588       0.23570519 </v>
   <v>       0.34178047       0.99577643       0.23645966 </v>
   <v>       0.32848942       0.32848942       0.23993007 </v>
   <v>       0.32848942       0.67635449       0.23993007 </v>
   <v>       0.66743588      -0.00153843       0.23570519 </v>
   <v>       0.67635449       0.32848942       0.23993007 </v>
   <v>       0.66743588       0.66743588       0.23570519 </v>
   <v>       0.11111111       0.11111111       0.27772349 </v>
   <v>       0.44444444       0.44444444       0.27970465 </v>
  </varray>
  <varray name="selective"  type="logical" >
   <v type="logical" >  F  F  F </v>
   <v type="logical" >  F  F  F </v>
   <v type="logical" >  F  F  F </v>
   <v type="logical" >  F  F  F </v>
   <v type="logical" >  F  F  F </v>
   <v type="logical" >  F  F  F </v>
   <v type="logical" >  F  F  F </v>
   <v type="logical" >  F  F  F </v>
   <v type="logical" >  F  F  F </v>
   <v type="logical" >  F  F  F </v>
   <v type="logical" >  F  F  F </v>
   <v type="logical" >  F  F  F </v>
   <v type="logical" >  F  F  F </v>
   <v type="logical" >  F  F  F </v>
   <v type="logical" >  F  F  F </v>
   <v type="logical" >  F  F  F </v>
   <v type="logical" >  F  F  F </v>
   <v type="logical" >  F  F  F </v>
   <v type="logical" >  T  T  T </v>
   <v type="logical" >  T  T  T </v>
   <v type="logical" >  T  T  T </v>
   <v type="logical" >  T  T  T </v>
   <v type="logical" >  T  T  T </v>
   <v type="logical" >  T  T  T </v>
   <v type="logical" >  T  T  T </v>
   <v type="logical" >  T  T  T </v>
   <v type="logical" >  T  T  T </v>
   <v type="logical" >  T  T  T </v>
   <v type="logical" >  T  T  T </v>
   <v type="logical" >  T  T  T </v>
   <v type="logical" >  T  T  T </v>
   <v type="logical" >  T  T  T </v>
   <v type="logical" >  T  T  T </v>
   <v type="logical" >  T  T  T </v>
   <v type="logical" >  T  T  T </v>
   <v type="logical" >  T  T  T </v>
   <v type="logical" >  T  T  T </v>
   <v type="logical" >  T  T  T </v>
  </varray>
  <nose>
   <v>      -3.00000000       0.00000000       0.00010000       0.00010000 </v>
  </nose>
 </structure>
</modeling>
