unknown system                          
           1
     7.529542    0.000000    0.000000
     3.764771    6.520775    0.000000
     0.000000    0.000000   26.207423
   Cu   C 
  36   2
Direct configuration=     1
   0.00000000  0.00000000  0.00000000
   0.00000000  0.33333333  0.00000000
   0.00000000  0.66666667  0.00000000
   0.33333333  0.00000000  0.00000000
   0.33333333  0.33333333  0.00000000
   0.33333333  0.66666667  0.00000000
   0.66666667  0.00000000  0.00000000
   0.66666667  0.33333333  0.00000000
   0.66666667  0.66666667  0.00000000
   0.11111111  0.11111111  0.07819471
   0.11111111  0.44444444  0.07819471
   0.11111111  0.77777778  0.07819471
   0.44444444  0.11111111  0.07819471
   0.44444444  0.44444444  0.07819471
   0.44444444  0.77777778  0.07819471
   0.77777778  0.11111111  0.07819471
   0.77777778  0.44444444  0.07819471
   0.77777778  0.77777778  0.07819471
   0.22156672  0.22156672  0.15698183
   0.22219376  0.55556979  0.15663707
   0.22156672  0.89019990  0.15698183
   0.55556979  0.22219376  0.15663707
   0.55556979  0.55556979  0.15663707
   0.55498583  0.88917375  0.15640686
   0.89019990  0.22156672  0.15698183
   0.88917375  0.55498583  0.15640686
   0.88917375  0.88917375  0.15640686
   0.99499124  0.99499124  0.23819225
   0.99499124  0.34335085  0.23819225
   0.99922840  0.66705247  0.23489935
   0.34335085  0.99499124  0.23819225
   0.33432735  0.33432735  0.23600336
   0.33432735  0.66467863  0.23600336
   0.66705247  0.99922840  0.23489935
   0.66467863  0.33432735  0.23600336
   0.66705247  0.66705247  0.23489935
   0.11111111  0.11111111  0.27869515
   0.44444444  0.44444444  0.32773892
Direct configuration=     2
   0.00000000  0.00000000  0.00000000
   0.00000000  0.33333333  0.00000000
   0.00000000  0.66666667  0.00000000
   0.33333333  0.00000000  0.00000000
   0.33333333  0.33333333  0.00000000
   0.33333333  0.66666667  0.00000000
   0.66666667  0.00000000  0.00000000
   0.66666667  0.33333333  0.00000000
   0.66666667  0.66666667  0.00000000
   0.11111111  0.11111111  0.07819471
   0.11111111  0.44444444  0.07819471
   0.11111111  0.77777778  0.07819471
   0.44444444  0.11111111  0.07819471
   0.44444444  0.44444444  0.07819471
   0.44444444  0.77777778  0.07819471
   0.77777778  0.11111111  0.07819471
   0.77777778  0.44444444  0.07819471
   0.77777778  0.77777778  0.07819471
   0.22183110  0.22183110  0.15705807
   0.22256740  0.55538297  0.15653417
   0.22183110  0.88967113  0.15705807
   0.55538297  0.22256740  0.15653417
   0.55538297  0.55538297  0.15653417
   0.55508624  0.88912355  0.15645293
   0.88967113  0.22183110  0.15705807
   0.88912355  0.55508624  0.15645293
   0.88912355  0.88912355  0.15645293
   0.99525710  0.99525710  0.23822140
   0.99525710  0.34281913  0.23822140
   0.99922239  0.66705547  0.23508540
   0.34281913  0.99525710  0.23822140
   0.33529811  0.33529811  0.23756027
   0.33529811  0.66273711  0.23756027
   0.66705547  0.99922239  0.23508540
   0.66273711  0.33529811  0.23756027
   0.66705547  0.66705547  0.23508540
   0.11111111  0.11111111  0.27853382
   0.44444444  0.44444444  0.32277309
Direct configuration=     3
   0.00000000  0.00000000  0.00000000
   0.00000000  0.33333333  0.00000000
   0.00000000  0.66666667  0.00000000
   0.33333333  0.00000000  0.00000000
   0.33333333  0.33333333  0.00000000
   0.33333333  0.66666667  0.00000000
   0.66666667  0.00000000  0.00000000
   0.66666667  0.33333333  0.00000000
   0.66666667  0.66666667  0.00000000
   0.11111111  0.11111111  0.07819471
   0.11111111  0.44444444  0.07819471
   0.11111111  0.77777778  0.07819471
   0.44444444  0.11111111  0.07819471
   0.44444444  0.44444444  0.07819471
   0.44444444  0.77777778  0.07819471
   0.77777778  0.11111111  0.07819471
   0.77777778  0.44444444  0.07819471
   0.77777778  0.77777778  0.07819471
   0.22262426  0.22262426  0.15728678
   0.22368831  0.55482251  0.15622544
   0.22262426  0.88808481  0.15728678
   0.55482251  0.22368831  0.15622544
   0.55482251  0.55482251  0.15622544
   0.55538748  0.88897293  0.15659115
   0.88808481  0.22262426  0.15728678
   0.88897293  0.55538748  0.15659115
   0.88897293  0.88897293  0.15659115
   0.99605467  0.99605467  0.23830882
   0.99605467  0.34122399  0.23830882
   0.99920437  0.66706448  0.23564353
   0.34122399  0.99605467  0.23830882
   0.33821040  0.33821040  0.24223099
   0.33821040  0.65691252  0.24223099
   0.66706448  0.99920437  0.23564353
   0.65691252  0.33821040  0.24223099
   0.66706448  0.66706448  0.23564353
   0.11111111  0.11111111  0.27804982
   0.44444444  0.44444444  0.30787563
Direct configuration=     4
   0.00000000  0.00000000  0.00000000
   0.00000000  0.33333333  0.00000000
   0.00000000  0.66666667  0.00000000
   0.33333333  0.00000000  0.00000000
   0.33333333  0.33333333  0.00000000
   0.33333333  0.66666667  0.00000000
   0.66666667  0.00000000  0.00000000
   0.66666667  0.33333333  0.00000000
   0.66666667  0.66666667  0.00000000
   0.11111111  0.11111111  0.07819471
   0.11111111  0.44444444  0.07819471
   0.11111111  0.77777778  0.07819471
   0.44444444  0.11111111  0.07819471
   0.44444444  0.44444444  0.07819471
   0.44444444  0.77777778  0.07819471
   0.77777778  0.11111111  0.07819471
   0.77777778  0.44444444  0.07819471
   0.77777778  0.77777778  0.07819471
   0.22421058  0.22421058  0.15774420
   0.22593013  0.55370160  0.15560799
   0.22421058  0.88491218  0.15774420
   0.55370160  0.22593013  0.15560799
   0.55370160  0.55370160  0.15560799
   0.55598994  0.88867170  0.15686759
   0.88491218  0.22421058  0.15774420
   0.88867170  0.55598994  0.15686759
   0.88867170  0.88867170  0.15686759
   0.99764981  0.99764981  0.23848367
   0.99764981  0.33803372  0.23848367
   0.99916831  0.66708251  0.23675980
   0.33803372  0.99764981  0.23848367
   0.34403499  0.34403499  0.25157244
   0.34403499  0.64526336  0.25157244
   0.66708251  0.99916831  0.23675980
   0.64526336  0.34403499  0.25157244
   0.66708251  0.66708251  0.23675980
   0.11111111  0.11111111  0.27708182
   0.44444444  0.44444444  0.27808070
Direct configuration=     5
   0.00000000  0.00000000  0.00000000
   0.00000000  0.33333333  0.00000000
   0.00000000  0.66666667  0.00000000
   0.33333333  0.00000000  0.00000000
   0.33333333  0.33333333  0.00000000
   0.33333333  0.66666667  0.00000000
   0.66666667  0.00000000  0.00000000
   0.66666667  0.33333333  0.00000000
   0.66666667  0.66666667  0.00000000
   0.11111111  0.11111111  0.07819471
   0.11111111  0.44444444  0.07819471
   0.11111111  0.77777778  0.07819471
   0.44444444  0.11111111  0.07819471
   0.44444444  0.44444444  0.07819471
   0.44444444  0.77777778  0.07819471
   0.77777778  0.11111111  0.07819471
   0.77777778  0.44444444  0.07819471
   0.77777778  0.77777778  0.07819471
   0.22284165  0.22284165  0.15734946
   0.22399553  0.55466890  0.15614082
   0.22284165  0.88765003  0.15734946
   0.55466890  0.22399553  0.15614082
   0.55466890  0.55466890  0.15614082
   0.55547004  0.88893165  0.15662903
   0.88765003  0.22284165  0.15734946
   0.88893165  0.55547004  0.15662903
   0.88893165  0.88893165  0.15662903
   0.99627327  0.99627327  0.23833278
   0.99627327  0.34078680  0.23833278
   0.99919943  0.66706695  0.23579651
   0.34078680  0.99627327  0.23833278
   0.33900861  0.33900861  0.24351115
   0.33900861  0.65531612  0.24351115
   0.66706695  0.99919943  0.23579651
   0.65531612  0.33900861  0.24351115
   0.66706695  0.66706695  0.23579651
   0.11111111  0.11111111  0.27791716
   0.44444444  0.44444444  0.30379252
Direct configuration=     6
   0.00000000  0.00000000  0.00000000
   0.00000000  0.33333333  0.00000000
   0.00000000  0.66666667  0.00000000
   0.33333333  0.00000000  0.00000000
   0.33333333  0.33333333  0.00000000
   0.33333333  0.66666667  0.00000000
   0.66666667  0.00000000  0.00000000
   0.66666667  0.33333333  0.00000000
   0.66666667  0.66666667  0.00000000
   0.11111111  0.11111111  0.07819471
   0.11111111  0.44444444  0.07819471
   0.11111111  0.77777778  0.07819471
   0.44444444  0.11111111  0.07819471
   0.44444444  0.44444444  0.07819471
   0.44444444  0.77777778  0.07819471
   0.77777778  0.11111111  0.07819471
   0.77777778  0.44444444  0.07819471
   0.77777778  0.77777778  0.07819471
   0.22352611  0.22352611  0.15754683
   0.22496283  0.55418525  0.15587441
   0.22352611  0.88628111  0.15754683
   0.55418525  0.22496283  0.15587441
   0.55418525  0.55418525  0.15587441
   0.55572999  0.88880167  0.15674831
   0.88628111  0.22352611  0.15754683
   0.88880167  0.55572999  0.15674831
   0.88880167  0.88880167  0.15674831
   0.99696154  0.99696154  0.23840823
   0.99696154  0.33941026  0.23840823
   0.99918387  0.66707473  0.23627816
   0.33941026  0.99696154  0.23840823
   0.34152180  0.34152180  0.24754179
   0.34152180  0.65028974  0.24754179
   0.66707473  0.99918387  0.23627816
   0.65028974  0.34152180  0.24754179
   0.66707473  0.66707473  0.23627816
   0.11111111  0.11111111  0.27749949
   0.44444444  0.44444444  0.29093661
Direct configuration=     7
   0.00000000  0.00000000  0.00000000
   0.00000000  0.33333333  0.00000000
   0.00000000  0.66666667  0.00000000
   0.33333333  0.00000000  0.00000000
   0.33333333  0.33333333  0.00000000
   0.33333333  0.66666667  0.00000000
   0.66666667  0.00000000  0.00000000
   0.66666667  0.33333333  0.00000000
   0.66666667  0.66666667  0.00000000
   0.11111111  0.11111111  0.07819471
   0.11111111  0.44444444  0.07819471
   0.11111111  0.77777778  0.07819471
   0.44444444  0.11111111  0.07819471
   0.44444444  0.44444444  0.07819471
   0.44444444  0.77777778  0.07819471
   0.77777778  0.11111111  0.07819471
   0.77777778  0.44444444  0.07819471
   0.77777778  0.77777778  0.07819471
   0.22316177  0.22316177  0.15744177
   0.22444793  0.55444270  0.15601622
   0.22316177  0.88700980  0.15744177
   0.55444270  0.22444793  0.15601622
   0.55444270  0.55444270  0.15601622
   0.55559162  0.88887086  0.15668482
   0.88700980  0.22316177  0.15744177
   0.88887086  0.55559162  0.15668482
   0.88887086  0.88887086  0.15668482
   0.99659517  0.99659517  0.23836807
   0.99659517  0.34014300  0.23836807
   0.99919215  0.66707059  0.23602177
   0.34014300  0.99659517  0.23836807
   0.34018400  0.34018400  0.24539624
   0.34018400  0.65296533  0.24539624
   0.66707059  0.99919215  0.23602177
   0.65296533  0.34018400  0.24539624
   0.66707059  0.66707059  0.23602177
   0.11111111  0.11111111  0.27772182
   0.44444444  0.44444444  0.29777994
Direct configuration=     8
   0.00000000  0.00000000  0.00000000
   0.00000000  0.33333333  0.00000000
   0.00000000  0.66666667  0.00000000
   0.33333333  0.00000000  0.00000000
   0.33333333  0.33333333  0.00000000
   0.33333333  0.66666667  0.00000000
   0.66666667  0.00000000  0.00000000
   0.66666667  0.33333333  0.00000000
   0.66666667  0.66666667  0.00000000
   0.11111111  0.11111111  0.07819471
   0.11111111  0.44444444  0.07819471
   0.11111111  0.77777778  0.07819471
   0.44444444  0.11111111  0.07819471
   0.44444444  0.44444444  0.07819471
   0.44444444  0.77777778  0.07819471
   0.77777778  0.11111111  0.07819471
   0.77777778  0.44444444  0.07819471
   0.77777778  0.77777778  0.07819471
   0.22333578  0.22333578  0.15749194
   0.22469384  0.55431975  0.15594849
   0.22333578  0.88666178  0.15749194
   0.55431975  0.22469384  0.15594849
   0.55431975  0.55431975  0.15594849
   0.55565770  0.88883782  0.15671514
   0.88666178  0.22333578  0.15749194
   0.88883782  0.55565770  0.15671514
   0.88883782  0.88883782  0.15671514
   0.99677014  0.99677014  0.23838725
   0.99677014  0.33979305  0.23838725
   0.99918820  0.66707257  0.23614422
   0.33979305  0.99677014  0.23838725
   0.34082293  0.34082293  0.24642095
   0.34082293  0.65168748  0.24642095
   0.66707257  0.99918820  0.23614422
   0.65168748  0.34082293  0.24642095
   0.66707257  0.66707257  0.23614422
   0.11111111  0.11111111  0.27761564
   0.44444444  0.44444444  0.29451159
Direct configuration=     9
   0.00000000  0.00000000  0.00000000
   0.00000000  0.33333333  0.00000000
   0.00000000  0.66666667  0.00000000
   0.33333333  0.00000000  0.00000000
   0.33333333  0.33333333  0.00000000
   0.33333333  0.66666667  0.00000000
   0.66666667  0.00000000  0.00000000
   0.66666667  0.33333333  0.00000000
   0.66666667  0.66666667  0.00000000
   0.11111111  0.11111111  0.07819471
   0.11111111  0.44444444  0.07819471
   0.11111111  0.77777778  0.07819471
   0.44444444  0.11111111  0.07819471
   0.44444444  0.44444444  0.07819471
   0.44444444  0.77777778  0.07819471
   0.77777778  0.11111111  0.07819471
   0.77777778  0.44444444  0.07819471
   0.77777778  0.77777778  0.07819471
   0.22345723  0.22345723  0.15773486
   0.22496238  0.55418548  0.15633819
   0.22345723  0.88641887  0.15773486
   0.55418548  0.22496238  0.15633819
   0.55418548  0.55418548  0.15633819
   0.55559006  0.88887164  0.15685572
   0.88641887  0.22345723  0.15773486
   0.88887164  0.55559006  0.15685572
   0.88887164  0.88887164  0.15685572
   0.99597660  0.99597660  0.23804143
   0.99597660  0.34138014  0.23804143
   0.99932145  0.66700594  0.23619753
   0.34138014  0.99597660  0.23804143
   0.33769971  0.33769971  0.24753443
   0.33769971  0.65793391  0.24753443
   0.66700594  0.99932145  0.23619753
   0.65793391  0.33769971  0.24753443
   0.66700594  0.66700594  0.23619753
   0.11111111  0.11111111  0.27827681
   0.44444444  0.44444444  0.28941501
Direct configuration=    10
   0.00000000  0.00000000  0.00000000
   0.00000000  0.33333333  0.00000000
   0.00000000  0.66666667  0.00000000
   0.33333333  0.00000000  0.00000000
   0.33333333  0.33333333  0.00000000
   0.33333333  0.66666667  0.00000000
   0.66666667  0.00000000  0.00000000
   0.66666667  0.33333333  0.00000000
   0.66666667  0.66666667  0.00000000
   0.11111111  0.11111111  0.07819471
   0.11111111  0.44444444  0.07819471
   0.11111111  0.77777778  0.07819471
   0.44444444  0.11111111  0.07819471
   0.44444444  0.44444444  0.07819471
   0.44444444  0.77777778  0.07819471
   0.77777778  0.11111111  0.07819471
   0.77777778  0.44444444  0.07819471
   0.77777778  0.77777778  0.07819471
   0.22345904  0.22345904  0.15773847
   0.22496638  0.55418348  0.15634399
   0.22345904  0.88641526  0.15773847
   0.55418348  0.22496638  0.15634399
   0.55418348  0.55418348  0.15634399
   0.55558905  0.88887214  0.15685781
   0.88641526  0.22345904  0.15773847
   0.88887214  0.55558905  0.15685781
   0.88887214  0.88887214  0.15685781
   0.99596479  0.99596479  0.23803628
   0.99596479  0.34140375  0.23803628
   0.99932343  0.66700495  0.23619833
   0.34140375  0.99596479  0.23803628
   0.33765324  0.33765324  0.24755100
   0.33765324  0.65802686  0.24755100
   0.66700495  0.99932343  0.23619833
   0.65802686  0.33765324  0.24755100
   0.66700495  0.66700495  0.23619833
   0.11111111  0.11111111  0.27828665
   0.44444444  0.44444444  0.28933917
Direct configuration=    11
   0.00000000  0.00000000  0.00000000
   0.00000000  0.33333333  0.00000000
   0.00000000  0.66666667  0.00000000
   0.33333333  0.00000000  0.00000000
   0.33333333  0.33333333  0.00000000
   0.33333333  0.66666667  0.00000000
   0.66666667  0.00000000  0.00000000
   0.66666667  0.33333333  0.00000000
   0.66666667  0.66666667  0.00000000
   0.11111111  0.11111111  0.07819471
   0.11111111  0.44444444  0.07819471
   0.11111111  0.77777778  0.07819471
   0.44444444  0.11111111  0.07819471
   0.44444444  0.44444444  0.07819471
   0.44444444  0.77777778  0.07819471
   0.77777778  0.11111111  0.07819471
   0.77777778  0.44444444  0.07819471
   0.77777778  0.77777778  0.07819471
   0.22335674  0.22335674  0.15794896
   0.22501020  0.55416157  0.15691733
   0.22335674  0.88661985  0.15794896
   0.55416157  0.22501020  0.15691733
   0.55416157  0.55416157  0.15691733
   0.55551001  0.88891166  0.15695210
   0.88661985  0.22335674  0.15794896
   0.88891166  0.55551001  0.15695210
   0.88891166  0.88891166  0.15695210
   0.99536528  0.99536528  0.23773894
   0.99536528  0.34260278  0.23773894
   0.99949915  0.66691709  0.23609832
   0.34260278  0.99536528  0.23773894
   0.33215374  0.33215374  0.24695049
   0.33215374  0.66902586  0.24695049
   0.66691709  0.99949915  0.23609832
   0.66902586  0.33215374  0.24695049
   0.66691709  0.66691709  0.23609832
   0.11111111  0.11111111  0.27882232
   0.44444444  0.44444444  0.28908376
Direct configuration=    12
   0.00000000  0.00000000  0.00000000
   0.00000000  0.33333333  0.00000000
   0.00000000  0.66666667  0.00000000
   0.33333333  0.00000000  0.00000000
   0.33333333  0.33333333  0.00000000
   0.33333333  0.66666667  0.00000000
   0.66666667  0.00000000  0.00000000
   0.66666667  0.33333333  0.00000000
   0.66666667  0.66666667  0.00000000
   0.11111111  0.11111111  0.07819471
   0.11111111  0.44444444  0.07819471
   0.11111111  0.77777778  0.07819471
   0.44444444  0.11111111  0.07819471
   0.44444444  0.44444444  0.07819471
   0.44444444  0.77777778  0.07819471
   0.77777778  0.11111111  0.07819471
   0.77777778  0.44444444  0.07819471
   0.77777778  0.77777778  0.07819471
   0.22331016  0.22331016  0.15804481
   0.22503016  0.55415159  0.15717841
   0.22331016  0.88671301  0.15804481
   0.55415159  0.22503016  0.15717841
   0.55415159  0.55415159  0.15717841
   0.55547401  0.88892966  0.15699504
   0.88671301  0.22331016  0.15804481
   0.88892966  0.55547401  0.15699504
   0.88892966  0.88892966  0.15699504
   0.99509229  0.99509229  0.23760355
   0.99509229  0.34314876  0.23760355
   0.99957917  0.66687708  0.23605278
   0.34314876  0.99509229  0.23760355
   0.32964951  0.32964951  0.24667704
   0.32964951  0.67403432  0.24667704
   0.66687708  0.99957917  0.23605278
   0.67403432  0.32964951  0.24667704
   0.66687708  0.66687708  0.23605278
   0.11111111  0.11111111  0.27906625
   0.44444444  0.44444444  0.28896745
Direct configuration=    13
   0.00000000  0.00000000  0.00000000
   0.00000000  0.33333333  0.00000000
   0.00000000  0.66666667  0.00000000
   0.33333333  0.00000000  0.00000000
   0.33333333  0.33333333  0.00000000
   0.33333333  0.66666667  0.00000000
   0.66666667  0.00000000  0.00000000
   0.66666667  0.33333333  0.00000000
   0.66666667  0.66666667  0.00000000
   0.11111111  0.11111111  0.07819471
   0.11111111  0.44444444  0.07819471
   0.11111111  0.77777778  0.07819471
   0.44444444  0.11111111  0.07819471
   0.44444444  0.44444444  0.07819471
   0.44444444  0.77777778  0.07819471
   0.77777778  0.11111111  0.07819471
   0.77777778  0.44444444  0.07819471
   0.77777778  0.77777778  0.07819471
   0.22316496  0.22316496  0.15807869
   0.22510995  0.55411169  0.15758977
   0.22316496  0.88700342  0.15807869
   0.55411169  0.22510995  0.15758977
   0.55411169  0.55411169  0.15758977
   0.55555984  0.88888675  0.15696396
   0.88700342  0.22316496  0.15807869
   0.88888675  0.55555984  0.15696396
   0.88888675  0.88888675  0.15696396
   0.99537620  0.99537620  0.23758855
   0.99537620  0.34258093  0.23758855
   0.99971863  0.66680735  0.23598705
   0.34258093  0.99537620  0.23758855
   0.32914618  0.32914618  0.24647151
   0.32914618  0.67504097  0.24647151
   0.66680735  0.99971863  0.23598705
   0.67504097  0.32914618  0.24647151
   0.66680735  0.66680735  0.23598705
   0.11111111  0.11111111  0.27888007
   0.44444444  0.44444444  0.28804700
Direct configuration=    14
   0.00000000  0.00000000  0.00000000
   0.00000000  0.33333333  0.00000000
   0.00000000  0.66666667  0.00000000
   0.33333333  0.00000000  0.00000000
   0.33333333  0.33333333  0.00000000
   0.33333333  0.66666667  0.00000000
   0.66666667  0.00000000  0.00000000
   0.66666667  0.33333333  0.00000000
   0.66666667  0.66666667  0.00000000
   0.11111111  0.11111111  0.07819471
   0.11111111  0.44444444  0.07819471
   0.11111111  0.77777778  0.07819471
   0.44444444  0.11111111  0.07819471
   0.44444444  0.44444444  0.07819471
   0.44444444  0.77777778  0.07819471
   0.77777778  0.11111111  0.07819471
   0.77777778  0.44444444  0.07819471
   0.77777778  0.77777778  0.07819471
   0.22272933  0.22272933  0.15818032
   0.22534933  0.55399200  0.15882384
   0.22272933  0.88787467  0.15818032
   0.55399200  0.22534933  0.15882384
   0.55399200  0.55399200  0.15882384
   0.55581734  0.88875800  0.15687074
   0.88787467  0.22272933  0.15818032
   0.88875800  0.55581734  0.15687074
   0.88875800  0.88875800  0.15687074
   0.99622794  0.99622794  0.23754354
   0.99622794  0.34087744  0.23754354
   0.00013702  0.66659816  0.23578984
   0.34087744  0.99622794  0.23754354
   0.32763621  0.32763621  0.24585489
   0.32763621  0.67806092  0.24585489
   0.66659816  0.00013702  0.23578984
   0.67806092  0.32763621  0.24585489
   0.66659816  0.66659816  0.23578984
   0.11111111  0.11111111  0.27832156
   0.44444444  0.44444444  0.28528563
Direct configuration=    15
   0.00000000  0.00000000  0.00000000
   0.00000000  0.33333333  0.00000000
   0.00000000  0.66666667  0.00000000
   0.33333333  0.00000000  0.00000000
   0.33333333  0.33333333  0.00000000
   0.33333333  0.66666667  0.00000000
   0.66666667  0.00000000  0.00000000
   0.66666667  0.33333333  0.00000000
   0.66666667  0.66666667  0.00000000
   0.11111111  0.11111111  0.07819471
   0.11111111  0.44444444  0.07819471
   0.11111111  0.77777778  0.07819471
   0.44444444  0.11111111  0.07819471
   0.44444444  0.44444444  0.07819471
   0.44444444  0.77777778  0.07819471
   0.77777778  0.11111111  0.07819471
   0.77777778  0.44444444  0.07819471
   0.77777778  0.77777778  0.07819471
   0.22266847  0.22266847  0.15819452
   0.22538277  0.55397528  0.15899624
   0.22266847  0.88799639  0.15819452
   0.55397528  0.22538277  0.15899624
   0.55397528  0.55397528  0.15899624
   0.55585331  0.88874001  0.15685771
   0.88799639  0.22266847  0.15819452
   0.88874001  0.55585331  0.15685771
   0.88874001  0.88874001  0.15685771
   0.99634694  0.99634694  0.23753725
   0.99634694  0.34063946  0.23753725
   0.00019547  0.66656893  0.23576229
   0.34063946  0.99634694  0.23753725
   0.32742525  0.32742525  0.24576875
   0.32742525  0.67848282  0.24576875
   0.66656893  0.00019547  0.23576229
   0.67848282  0.32742525  0.24576875
   0.66656893  0.66656893  0.23576229
   0.11111111  0.11111111  0.27824353
   0.44444444  0.44444444  0.28489985
Direct configuration=    16
   0.00000000  0.00000000  0.00000000
   0.00000000  0.33333333  0.00000000
   0.00000000  0.66666667  0.00000000
   0.33333333  0.00000000  0.00000000
   0.33333333  0.33333333  0.00000000
   0.33333333  0.66666667  0.00000000
   0.66666667  0.00000000  0.00000000
   0.66666667  0.33333333  0.00000000
   0.66666667  0.66666667  0.00000000
   0.11111111  0.11111111  0.07819471
   0.11111111  0.44444444  0.07819471
   0.11111111  0.77777778  0.07819471
   0.44444444  0.11111111  0.07819471
   0.44444444  0.44444444  0.07819471
   0.44444444  0.77777778  0.07819471
   0.77777778  0.11111111  0.07819471
   0.77777778  0.44444444  0.07819471
   0.77777778  0.77777778  0.07819471
   0.22268539  0.22268539  0.15804611
   0.22567548  0.55382893  0.15928586
   0.22268539  0.88796255  0.15804611
   0.55382893  0.22567548  0.15928586
   0.55382893  0.55382893  0.15928586
   0.55581863  0.88875735  0.15677168
   0.88796255  0.22268539  0.15804611
   0.88875735  0.55581863  0.15677168
   0.88875735  0.88875735  0.15677168
   0.99564225  0.99564225  0.23726158
   0.99564225  0.34204883  0.23726158
  -0.00024217  0.66678775  0.23579217
   0.34204883  0.99564225  0.23726158
   0.32748181  0.32748181  0.24525279
   0.32748181  0.67836971  0.24525279
   0.66678775 -0.00024217  0.23579217
   0.67836971  0.32748181  0.24525279
   0.66678775  0.66678775  0.23579217
   0.11111111  0.11111111  0.27868247
   0.44444444  0.44444444  0.28362841
Direct configuration=    17
   0.00000000  0.00000000  0.00000000
   0.00000000  0.33333333  0.00000000
   0.00000000  0.66666667  0.00000000
   0.33333333  0.00000000  0.00000000
   0.33333333  0.33333333  0.00000000
   0.33333333  0.66666667  0.00000000
   0.66666667  0.00000000  0.00000000
   0.66666667  0.33333333  0.00000000
   0.66666667  0.66666667  0.00000000
   0.11111111  0.11111111  0.07819471
   0.11111111  0.44444444  0.07819471
   0.11111111  0.77777778  0.07819471
   0.44444444  0.11111111  0.07819471
   0.44444444  0.44444444  0.07819471
   0.44444444  0.77777778  0.07819471
   0.77777778  0.11111111  0.07819471
   0.77777778  0.44444444  0.07819471
   0.77777778  0.77777778  0.07819471
   0.22268933  0.22268933  0.15801160
   0.22574354  0.55379490  0.15935320
   0.22268933  0.88795468  0.15801160
   0.55379490  0.22574354  0.15935320
   0.55379490  0.55379490  0.15935320
   0.55581057  0.88876138  0.15675167
   0.88795468  0.22268933  0.15801160
   0.88876138  0.55581057  0.15675167
   0.88876138  0.88876138  0.15675167
   0.99547841  0.99547841  0.23719748
   0.99547841  0.34237651  0.23719748
  -0.00034392  0.66683863  0.23579911
   0.34237651  0.99547841  0.23719748
   0.32749496  0.32749496  0.24513283
   0.32749496  0.67834341  0.24513283
   0.66683863 -0.00034392  0.23579911
   0.67834341  0.32749496  0.24513283
   0.66683863  0.66683863  0.23579911
   0.11111111  0.11111111  0.27878453
   0.44444444  0.44444444  0.28333279
Direct configuration=    18
   0.00000000  0.00000000  0.00000000
   0.00000000  0.33333333  0.00000000
   0.00000000  0.66666667  0.00000000
   0.33333333  0.00000000  0.00000000
   0.33333333  0.33333333  0.00000000
   0.33333333  0.66666667  0.00000000
   0.66666667  0.00000000  0.00000000
   0.66666667  0.33333333  0.00000000
   0.66666667  0.66666667  0.00000000
   0.11111111  0.11111111  0.07819471
   0.11111111  0.44444444  0.07819471
   0.11111111  0.77777778  0.07819471
   0.44444444  0.11111111  0.07819471
   0.44444444  0.44444444  0.07819471
   0.44444444  0.77777778  0.07819471
   0.77777778  0.11111111  0.07819471
   0.77777778  0.44444444  0.07819471
   0.77777778  0.77777778  0.07819471
   0.22280517  0.22280517  0.15778940
   0.22581481  0.55375926  0.15926129
   0.22280517  0.88772300  0.15778940
   0.55375926  0.22581481  0.15926129
   0.55375926  0.55375926  0.15926129
   0.55582297  0.88875518  0.15663735
   0.88772300  0.22280517  0.15778940
   0.88875518  0.55582297  0.15663735
   0.88875518  0.88875518  0.15663735
   0.99544271  0.99544271  0.23711126
   0.99544271  0.34244791  0.23711126
  -0.00106004  0.66719669  0.23591299
   0.34244791  0.99544271  0.23711126
   0.32732849  0.32732849  0.24441741
   0.32732849  0.67867635  0.24441741
   0.66719669 -0.00106004  0.23591299
   0.67867635  0.32732849  0.24441741
   0.66719669  0.66719669  0.23591299
   0.11111111  0.11111111  0.27870028
   0.44444444  0.44444444  0.28293195
Direct configuration=    19
   0.00000000  0.00000000  0.00000000
   0.00000000  0.33333333  0.00000000
   0.00000000  0.66666667  0.00000000
   0.33333333  0.00000000  0.00000000
   0.33333333  0.33333333  0.00000000
   0.33333333  0.66666667  0.00000000
   0.66666667  0.00000000  0.00000000
   0.66666667  0.33333333  0.00000000
   0.66666667  0.66666667  0.00000000
   0.11111111  0.11111111  0.07819471
   0.11111111  0.44444444  0.07819471
   0.11111111  0.77777778  0.07819471
   0.44444444  0.11111111  0.07819471
   0.44444444  0.44444444  0.07819471
   0.44444444  0.77777778  0.07819471
   0.77777778  0.11111111  0.07819471
   0.77777778  0.44444444  0.07819471
   0.77777778  0.77777778  0.07819471
   0.22297071  0.22297071  0.15747185
   0.22591666  0.55370834  0.15912995
   0.22297071  0.88739191  0.15747185
   0.55370834  0.22591666  0.15912995
   0.55370834  0.55370834  0.15912995
   0.55584068  0.88874633  0.15647397
   0.88739191  0.22297071  0.15747185
   0.88874633  0.55584068  0.15647397
   0.88874633  0.88874633  0.15647397
   0.99539169  0.99539169  0.23698803
   0.99539169  0.34254995  0.23698803
  -0.00208342  0.66770838  0.23607573
   0.34254995  0.99539169  0.23698803
   0.32709059  0.32709059  0.24339504
   0.32709059  0.67915215  0.24339504
   0.66770838 -0.00208342  0.23607573
   0.67915215  0.32709059  0.24339504
   0.66770838  0.66770838  0.23607573
   0.11111111  0.11111111  0.27857989
   0.44444444  0.44444444  0.28235911
Direct configuration=    20
   0.00000000  0.00000000  0.00000000
   0.00000000  0.33333333  0.00000000
   0.00000000  0.66666667  0.00000000
   0.33333333  0.00000000  0.00000000
   0.33333333  0.33333333  0.00000000
   0.33333333  0.66666667  0.00000000
   0.66666667  0.00000000  0.00000000
   0.66666667  0.33333333  0.00000000
   0.66666667  0.66666667  0.00000000
   0.11111111  0.11111111  0.07819471
   0.11111111  0.44444444  0.07819471
   0.11111111  0.77777778  0.07819471
   0.44444444  0.11111111  0.07819471
   0.44444444  0.44444444  0.07819471
   0.44444444  0.77777778  0.07819471
   0.77777778  0.11111111  0.07819471
   0.77777778  0.44444444  0.07819471
   0.77777778  0.77777778  0.07819471
   0.22330180  0.22330180  0.15683675
   0.22612035  0.55360649  0.15886727
   0.22330180  0.88672973  0.15683675
   0.55360649  0.22612035  0.15886727
   0.55360649  0.55360649  0.15886727
   0.55587611  0.88872861  0.15614722
   0.88672973  0.22330180  0.15683675
   0.88872861  0.55587611  0.15614722
   0.88872861  0.88872861  0.15614722
   0.99528966  0.99528966  0.23674159
   0.99528966  0.34275402  0.23674159
  -0.00413019  0.66873176  0.23640121
   0.34275402  0.99528966  0.23674159
   0.32661479  0.32661479  0.24135028
   0.32661479  0.68010374  0.24135028
   0.66873176 -0.00413019  0.23640121
   0.68010374  0.32661479  0.24135028
   0.66873176  0.66873176  0.23640121
   0.11111111  0.11111111  0.27833910
   0.44444444  0.44444444  0.28121343
Direct configuration=    21
   0.00000000  0.00000000  0.00000000
   0.00000000  0.33333333  0.00000000
   0.00000000  0.66666667  0.00000000
   0.33333333  0.00000000  0.00000000
   0.33333333  0.33333333  0.00000000
   0.33333333  0.66666667  0.00000000
   0.66666667  0.00000000  0.00000000
   0.66666667  0.33333333  0.00000000
   0.66666667  0.66666667  0.00000000