   38   38  150    1
  0.3386168E+02  0.7529542E-09  0.7529542E-09  0.2620742E-08  0.5000000E-15
  1.000000000000000E-004
  CAR 
 unknown system                          
    620     10    372
 
  0.0000000E+00  0.0000000E+00  0.0000000E+00  0.6250000E-01
    1      -71.663704
    2      -71.564454
    3      -71.554753
    4      -71.503640
    5      -71.392393
    6      -71.364877
    7      -71.281329
    8      -71.273306
    9      -71.211120
   10      -71.202437
   11      -71.188885
   12      -71.167011
   13      -71.138627
   14      -71.087221
   15      -71.063512
   16      -71.001925
   17      -70.997594
   18      -70.994338
   19      -70.988607
   20      -70.987775
   21      -70.977924
   22      -70.977455
   23      -70.973050
   24      -70.972110
   25      -70.965382
   26      -70.961761
   27      -70.959144
   28      -70.958225
   29      -70.956061
   30      -70.952960
   31      -70.943153
   32      -70.936123
   33      -70.934205
   34      -70.928824
   35      -70.926119
   36      -70.922567
   37      -70.920661
   38      -70.918872
   39      -70.915733
   40      -70.912133
   41      -70.908430
   42      -70.907922
   43      -70.903642
   44      -70.901825
   45      -70.900693
   46      -70.899702
   47      -70.895440
   48      -70.891322
   49      -70.889009
   50      -70.887664
   51      -70.886381
   52      -70.877325
   53      -70.869810
   54      -70.862328
   55      -70.856911
   56      -70.851267
   57      -70.842088
   58      -70.838391
   59      -70.835715
   60      -70.822043
   61      -70.816150
   62      -70.815284
   63      -70.814147
   64      -70.803152
   65      -70.796031
   66      -70.793015
   67      -70.786026
   68      -70.776741
   69      -70.772731
   70      -70.765864
   71      -70.760810
   72      -70.756857
   73      -70.748647
   74      -70.739959
   75      -70.734248
   76      -70.726132
   77      -70.721503
   78      -70.717788
   79      -70.715348
   80      -70.712666
   81      -70.710164
   82      -70.707661
   83      -70.702160
   84      -70.699967
   85      -70.699749
   86      -70.665519
   87      -70.663289
   88      -70.658069
   89      -70.654175
   90      -70.651707
   91      -70.647919
   92      -70.640563
   93      -70.636430
   94      -70.632952
   95      -70.616474
   96      -70.613285
   97      -70.604236
   98      -70.599981
   99      -70.598345
  100      -70.597570
  101      -70.596191
  102      -70.591180
  103      -70.588155
  104      -70.577219
  105      -70.551162
  106      -70.522019
  107      -70.469739
  108      -70.450910
  109      -12.518566
  110      -11.848235
  111      -10.003273
  112       -8.484780
  113       -7.197363
  114       -7.107554
  115       -7.022731
  116       -6.996442
  117       -6.973927
  118       -6.927936
  119       -6.867571
  120       -6.646997
  121       -6.499715
  122       -6.451898
  123       -6.344241
  124       -6.227665
  125       -6.124061
  126       -6.033265
  127       -5.925420
  128       -5.861168
  129       -5.798198
  130       -5.731937
  131       -5.550536
  132       -5.462857
  133       -5.435768
  134       -5.329945
  135       -5.295373
  136       -5.272909
  137       -5.226556
  138       -5.191260
  139       -5.188180
  140       -5.148941
  141       -5.146495
  142       -5.123815
  143       -5.103497
  144       -5.071649
  145       -5.002855
  146       -4.984065
  147       -4.967402
  148       -4.961037
  149       -4.940134
  150       -4.922765
  151       -4.920174
  152       -4.918809
  153       -4.903021
  154       -4.892652
  155       -4.883524
  156       -4.838977
  157       -4.792700
  158       -4.749989
  159       -4.720141
  160       -4.709899
  161       -4.700732
  162       -4.688529
  163       -4.656386
  164       -4.645222
  165       -4.605043
  166       -4.565939
  167       -4.530811
  168       -4.493889
  169       -4.427940
  170       -4.415938
  171       -4.363297
  172       -4.328475
  173       -4.326915
  174       -4.299008
  175       -4.285937
  176       -4.234849
  177       -4.222529
  178       -4.194245
  179       -4.185902
  180       -4.160782
  181       -4.149702
  182       -4.129834
  183       -4.116590
  184       -4.101270
  185       -4.094574
  186       -4.075345
  187       -4.065156
  188       -4.038723
  189       -3.999178
  190       -3.984035
  191       -3.979872
  192       -3.952304
  193       -3.950443
  194       -3.934702
  195       -3.919844
  196       -3.902811
  197       -3.871695
  198       -3.867703
  199       -3.830752
  200       -3.818161
  201       -3.806869
  202       -3.783610
  203       -3.776717
  204       -3.751081
  205       -3.745924
  206       -3.734515
  207       -3.719267
  208       -3.701354
  209       -3.694230
  210       -3.692297
  211       -3.681372
  212       -3.677848
  213       -3.670623
  214       -3.660108
  215       -3.654499
  216       -3.646378
  217       -3.642470
  218       -3.634633
  219       -3.609907
  220       -3.602993
  221       -3.570933
  222       -3.567390
  223       -3.544972
  224       -3.501600
  225       -3.472949
  226       -3.413991
  227       -3.385402
  228       -3.331938
  229       -3.309885
  230       -3.283028
  231       -3.272577
  232       -3.261050
  233       -3.253615
  234       -3.246706
  235       -3.243908
  236       -3.224876
  237       -3.215341
  238       -3.197525
  239       -3.169078
  240       -3.164290
  241       -3.154721
  242       -3.131017
  243       -3.097923
  244       -3.090297
  245       -3.078217
  246       -3.069802
  247       -3.063530
  248       -3.050181
  249       -3.027526
  250       -3.021480
  251       -3.006190
  252       -2.986923
  253       -2.978271
  254       -2.965153
  255       -2.946197
  256       -2.926647
  257       -2.924955
  258       -2.914728
  259       -2.883249
  260       -2.863633
  261       -2.830742
  262       -2.824329
  263       -2.815350
  264       -2.802799
  265       -2.778536
  266       -2.769863
  267       -2.763429
  268       -2.757110
  269       -2.755517
  270       -2.746121
  271       -2.744557
  272       -2.730208
  273       -2.724992
  274       -2.715794
  275       -2.711044
  276       -2.698995
  277       -2.687622
  278       -2.675089
  279       -2.655267
  280       -2.651504
  281       -2.634457
  282       -2.623134
  283       -2.618726
  284       -2.615041
  285       -2.602069
  286       -2.597019
  287       -2.593695
  288       -2.591894
  289       -2.589680
  290       -2.587161
  291       -2.580272
  292       -2.570320
  293       -2.560730
  294       -2.558304
  295       -2.549497
  296       -2.532122
  297       -2.503446
  298       -2.489215
  299       -2.471467
  300       -2.468678
  301       -2.460610
  302       -2.451770
  303       -2.441063
  304       -2.426904
  305       -2.342726
  306       -1.820467
  307       -1.789155
  308       -1.705765
  309       -1.565300
  310       -1.467993
  311       -1.418784
  312       -1.166515
  313       -0.426025
  314       -0.258166
  315       -0.067671
  316        0.197985
  317        0.268743
  318        0.689372
  319        1.017307
  320        1.211278
  321        1.591568
  322        1.752044
  323        2.237208
  324        2.708529
  325        2.757729
  326        2.928564
  327        2.983074
  328        3.024238
  329        3.076693
  330        3.184443
  331        3.367657
  332        3.534394
  333        3.584016
  334        3.661279
  335        3.764182
  336        3.780118
  337        3.835002
  338        4.000426
  339        4.051476
  340        4.274985
  341        4.319801
  342        4.691514
  343        4.758909
  344        4.859768
  345        5.034936
  346        5.178486
  347        5.513838
  348        5.649436
  349        5.823364
  350        5.928710
  351        5.955975
  352        6.003462
  353        6.104586
  354        6.235800
  355        6.276037
  356        6.392527
  357        6.456493
  358        6.590226
  359        6.737406
  360        6.797052
  361        6.806965
  362        6.943222
  363        6.964321
  364        7.046919
  365        7.201323
  366        7.244255
  367        7.281871
  368        7.321346
  369        7.346838
  370        7.355314
  371        7.405242
  372        7.422595
 
  0.2500000E+00  0.5551115E-16  0.0000000E+00  0.1250000E+00
    1      -71.663585
    2      -71.564309
    3      -71.554556
    4      -71.503508
    5      -71.392219
    6      -71.364721
    7      -71.281205
    8      -71.273251
    9      -71.210885
   10      -71.202298
   11      -71.188795
   12      -71.166893
   13      -71.138452
   14      -71.086133
   15      -71.064027
   16      -71.005155
   17      -71.003068
   18      -70.997436
   19      -70.991219
   20      -70.987010
   21      -70.979128
   22      -70.973159
   23      -70.972746
   24      -70.971772
   25      -70.966159
   26      -70.959075
   27      -70.956924
   28      -70.953452
   29      -70.950880
   30      -70.944957
   31      -70.940901
   32      -70.935985
   33      -70.934035
   34      -70.930482
   35      -70.926373
   36      -70.923640
   37      -70.921997
   38      -70.918982
   39      -70.916429
   40      -70.911940
   41      -70.909980
   42      -70.908212
   43      -70.904910
   44      -70.902702
   45      -70.901600
   46      -70.899662
   47      -70.895535
   48      -70.893288
   49      -70.891159
   50      -70.888532
   51      -70.886312
   52      -70.877812
   53      -70.864273
   54      -70.859167
   55      -70.858735
   56      -70.851164
   57      -70.841980
   58      -70.838396
   59      -70.836129
   60      -70.824720
   61      -70.818983
   62      -70.811817
   63      -70.808524
   64      -70.802316
   65      -70.794734
   66      -70.791664
   67      -70.786155
   68      -70.776835
   69      -70.773351
   70      -70.766533
   71      -70.761681
   72      -70.757886
   73      -70.748713
   74      -70.741061
   75      -70.734475
   76      -70.733945
   77      -70.728654
   78      -70.723958
   79      -70.718619
   80      -70.716200
   81      -70.705658
   82      -70.700456
   83      -70.692929
   84      -70.689234
   85      -70.685117
   86      -70.667526
   87      -70.665009
   88      -70.661680
   89      -70.656044
   90      -70.651971
   91      -70.647345
   92      -70.640326
   93      -70.640054
   94      -70.635478
   95      -70.616206
   96      -70.613228
   97      -70.604032
   98      -70.599898
   99      -70.598646
  100      -70.597166
  101      -70.595829
  102      -70.591090
  103      -70.588088
  104      -70.577135
  105      -70.551187
  106      -70.521917
  107      -70.469623
  108      -70.450813
  109      -12.468479
  110      -11.903918
  111       -9.782815
  112       -8.333731
  113       -8.108770
  114       -7.459117
  115       -7.398082
  116       -7.070568
  117       -6.954387
  118       -6.639158
  119       -6.547643
  120       -6.398825
  121       -6.352142
  122       -6.276453
  123       -6.203180
  124       -6.107101
  125       -6.016910
  126       -5.977809
  127       -5.892950
  128       -5.803246
  129       -5.765556
  130       -5.686121
  131       -5.545673
  132       -5.443682
  133       -5.407286
  134       -5.340372
  135       -5.324849
  136       -5.300909
  137       -5.276197
  138       -5.245786
  139       -5.224240
  140       -5.217133
  141       -5.186778
  142       -5.176727
  143       -5.163794
  144       -5.136451
  145       -5.114975
  146       -5.069385
  147       -5.039340
  148       -5.025371
  149       -5.012661
  150       -4.959780
  151       -4.947485
  152       -4.919665
  153       -4.887856
  154       -4.856883
  155       -4.814645
  156       -4.806019
  157       -4.774783
  158       -4.758677
  159       -4.713183
  160       -4.693588
  161       -4.665993
  162       -4.645371
  163       -4.630305
  164       -4.579964
  165       -4.562490
  166       -4.531350
  167       -4.495064
  168       -4.478889
  169       -4.461342
  170       -4.439898
  171       -4.416352
  172       -4.388931
  173       -4.353540
  174       -4.330269
  175       -4.304170
  176       -4.283987
  177       -4.255707
  178       -4.223340
  179       -4.213094
  180       -4.193371
  181       -4.165101
  182       -4.155311
  183       -4.133694
  184       -4.118198
  185       -4.106061
  186       -4.086584
  187       -4.066031
  188       -4.039026
  189       -4.016984
  190       -3.995986
  191       -3.982579
  192       -3.964826
  193       -3.960019
  194       -3.931871
  195       -3.918892
  196       -3.912125
  197       -3.876344
  198       -3.871527
  199       -3.861887
  200       -3.844020
  201       -3.824929
  202       -3.820834
  203       -3.797248
  204       -3.788547
  205       -3.780339
  206       -3.763103
  207       -3.755946
  208       -3.743767
  209       -3.737678
  210       -3.730960
  211       -3.717130
  212       -3.708056
  213       -3.693189
  214       -3.669570
  215       -3.655828
  216       -3.639142
  217       -3.618106
  218       -3.599790
  219       -3.595235
  220       -3.583022
  221       -3.580041
  222       -3.573872
  223       -3.559806
  224       -3.546591
  225       -3.511602
  226       -3.487321
  227       -3.470096
  228       -3.449154
  229       -3.409808
  230       -3.366729
  231       -3.346894
  232       -3.337844
  233       -3.321619
  234       -3.306017
  235       -3.287221
  236       -3.275060
  237       -3.254105
  238       -3.230686
  239       -3.222755
  240       -3.198869
  241       -3.184967
  242       -3.173634
  243       -3.147278
  244       -3.138129
  245       -3.116088
  246       -3.095981
  247       -3.086851
  248       -3.068730
  249       -3.057617
  250       -3.037427
  251       -3.010084
  252       -3.000616
  253       -2.993178
  254       -2.984907
  255       -2.966908
  256       -2.953158
  257       -2.944751
  258       -2.920974
  259       -2.909546
  260       -2.903756
  261       -2.886603
  262       -2.868410
  263       -2.850505
  264       -2.834355
  265       -2.810435
  266       -2.795068
  267       -2.790199
  268       -2.774098
  269       -2.750324
  270       -2.740910
  271       -2.725292
  272       -2.712095
  273       -2.695524
  274       -2.687369
  275       -2.672469
  276       -2.661316
  277       -2.646419
  278       -2.624363
  279       -2.620312
  280       -2.599675
  281       -2.596667
  282       -2.584511
  283       -2.562697
  284       -2.546585
  285       -2.542075
  286       -2.525946
  287       -2.517967
  288       -2.511722
  289       -2.505131
  290       -2.490290
  291       -2.484320
  292       -2.471394
  293       -2.464174
  294       -2.455985
  295       -2.445518
  296       -2.422341
  297       -2.406189
  298       -2.397863
  299       -2.298645
  300       -2.284651
  301       -2.189446
  302       -2.116824
  303       -2.039940
  304       -1.971802
  305       -1.898020
  306       -1.814894
  307       -1.624781
  308       -1.502370
  309       -1.238228
  310       -1.114072
  311       -1.014350
  312       -0.829874
  313       -0.556167
  314       -0.283910
  315        0.046594
  316        0.105279
  317        0.298426
  318        0.607704
  319        0.809510
  320        0.899391
  321        1.101595
  322        1.204620
  323        1.506985
  324        1.764590
  325        1.879121
  326        2.138479
  327        2.288797
  328        2.525604
  329        2.784657
  330        2.984223
  331        3.236640
  332        3.320461
  333        3.448221
  334        3.711064
  335        3.787491
  336        3.991876
  337        4.227639
  338        4.326472
  339        4.594338
  340        4.649566
  341        4.855604
  342        4.944058
  343        4.979918
  344        5.047354
  345        5.183878
  346        5.243113
  347        5.348340
  348        5.517940
  349        5.608439
  350        5.614120
  351        5.675410
  352        5.777294
  353        5.987228
  354        6.021427
  355        6.072769
  356        6.216749
  357        6.288908
  358        6.311075
  359        6.393603
  360        6.434575
  361        6.495097
  362        6.629107
  363        6.741424
  364        6.838187
  365        6.932207
  366        7.075267
  367        7.173263
  368        7.264683
  369        7.326191
  370        7.380311
  371        7.498969
  372        7.615901
 
  0.5000000E+00  0.1110223E-15  0.0000000E+00  0.6250000E-01
    1      -71.663673
    2      -71.564426
    3      -71.554618
    4      -71.503592
    5      -71.392337
    6      -71.364712
    7      -71.281332
    8      -71.273467
    9      -71.210945
   10      -71.202263
   11      -71.188772
   12      -71.166866
   13      -71.138549
   14      -71.085268
   15      -71.064928
   16      -71.009627
   17      -71.005994
   18      -70.997433
   19      -70.993341
   20      -70.990204
   21      -70.981578
   22      -70.972991
   23      -70.972583
   24      -70.967825
   25      -70.962227
   26      -70.959508
   27      -70.955742
   28      -70.948896
   29      -70.945043
   30      -70.940858
   31      -70.938417
   32      -70.934792
   33      -70.934208
   34      -70.932063
   35      -70.924957
   36      -70.924184
   37      -70.922640
   38      -70.919196
   39      -70.917075
   40      -70.913678
   41      -70.911487
   42      -70.908512
   43      -70.905852
   44      -70.904139
   45      -70.902389
   46      -70.901699
   47      -70.899598
   48      -70.895681
   49      -70.892317
   50      -70.888448
   51      -70.886346
   52      -70.878397
   53      -70.861099
   54      -70.859317
   55      -70.854216
   56      -70.851089
   57      -70.842113
   58      -70.838883
   59      -70.837418
   60      -70.828231
   61      -70.820589
   62      -70.809756
   63      -70.804423
   64      -70.800529
   65      -70.793140
   66      -70.789792
   67      -70.785654
   68      -70.778996
   69      -70.774621
   70      -70.767247
   71      -70.762789
   72      -70.759402
   73      -70.749145
   74      -70.742470
   75      -70.739511
   76      -70.734495
   77      -70.731666
   78      -70.728200
   79      -70.722027
   80      -70.720012
   81      -70.700465
   82      -70.694008
   83      -70.683456
   84      -70.677541
   85      -70.674570
   86      -70.671428
   87      -70.666366
   88      -70.664537
   89      -70.661538
   90      -70.654661
   91      -70.649126
   92      -70.645046
   93      -70.640325
   94      -70.637836
   95      -70.616170
   96      -70.613129
   97      -70.604023
   98      -70.599816
   99      -70.598907
  100      -70.597048
  101      -70.595527
  102      -70.590981
  103      -70.587975
  104      -70.577041
  105      -70.551551
  106      -70.521857
  107      -70.469793
  108      -70.450748
  109      -12.406276
  110      -11.971595
  111       -9.174764
  112       -9.102261
  113       -7.916828
  114       -7.700107
  115       -7.570872
  116       -7.474393
  117       -6.930143
  118       -6.569848
  119       -6.467363
  120       -6.420923
  121       -6.179946
  122       -6.033933
  123       -5.935331
  124       -5.857220
  125       -5.811760
  126       -5.788610
  127       -5.727965
  128       -5.712478
  129       -5.700745
  130       -5.680843
  131       -5.623455
  132       -5.581470
  133       -5.559295
  134       -5.519790
  135       -5.470476
  136       -5.437867
  137       -5.365779
  138       -5.327999
  139       -5.304872
  140       -5.282906
  141       -5.216574
  142       -5.183767
  143       -5.135225
  144       -5.120670
  145       -5.116865
  146       -5.089834
  147       -5.068563
  148       -5.047788
  149       -5.030120
  150       -5.014060
  151       -4.983430
  152       -4.908207
  153       -4.880148
  154       -4.864417
  155       -4.817867
  156       -4.798056
  157       -4.777918
  158       -4.746624
  159       -4.701874
  160       -4.689289
  161       -4.661353
  162       -4.648477
  163       -4.616511
  164       -4.581275
  165       -4.556436
  166       -4.517774
  167       -4.492284
  168       -4.437754
  169       -4.428561
  170       -4.417179
  171       -4.409818
  172       -4.373455
  173       -4.367746
  174       -4.321019
  175       -4.305411
  176       -4.296699
  177       -4.291511
  178       -4.239522
  179       -4.228711
  180       -4.206861
  181       -4.179552
  182       -4.168279
  183       -4.153399
  184       -4.140242
  185       -4.135564
  186       -4.125928
  187       -4.093665
  188       -4.086581
  189       -4.071752
  190       -4.066635
  191       -4.057370
  192       -4.042445
  193       -4.027602
  194       -3.987927
  195       -3.963594
  196       -3.942007
  197       -3.929103
  198       -3.907852
  199       -3.895859
  200       -3.872409
  201       -3.856168
  202       -3.840084
  203       -3.835211
  204       -3.812048
  205       -3.794700
  206       -3.778130
  207       -3.761334
  208       -3.747941
  209       -3.722318
  210       -3.713774
  211       -3.708261
  212       -3.684293
  213       -3.677860
  214       -3.674709
  215       -3.648146
  216       -3.632470
  217       -3.615228
  218       -3.595963
  219       -3.585931
  220       -3.582571
  221       -3.574334
  222       -3.537882
  223       -3.531336
  224       -3.498416
  225       -3.478830
  226       -3.454899
  227       -3.423193
  228       -3.415333
  229       -3.402040
  230       -3.388515
  231       -3.380624
  232       -3.363158
  233       -3.349809
  234       -3.342744
  235       -3.328675
  236       -3.316411
  237       -3.303830
  238       -3.300162
  239       -3.292863
  240       -3.267834
  241       -3.243602
  242       -3.241202
  243       -3.223289
  244       -3.200786
  245       -3.183063
  246       -3.157059
  247       -3.134347
  248       -3.103604
  249       -3.096157
  250       -3.064593
  251       -3.046640
  252       -3.033304
  253       -3.015364
  254       -2.980484
  255       -2.971664
  256       -2.961358
  257       -2.949275
  258       -2.937940
  259       -2.908001
  260       -2.898430
  261       -2.874767
  262       -2.862624
  263       -2.850746
  264       -2.840976
  265       -2.832148
  266       -2.824399
  267       -2.810171
  268       -2.780875
  269       -2.769448
  270       -2.750229
  271       -2.724375
  272       -2.700629
  273       -2.687807
  274       -2.684971
  275       -2.673295
  276       -2.652688
  277       -2.640239
  278       -2.603577
  279       -2.591078
  280       -2.577475
  281       -2.555310
  282       -2.542742
  283       -2.537251
  284       -2.535889
  285       -2.522559
  286       -2.513473
  287       -2.491913
  288       -2.487951
  289       -2.481256
  290       -2.456594
  291       -2.451083
  292       -2.438218
  293       -2.391672
  294       -2.385594
  295       -2.371395
  296       -2.358420
  297       -2.334878
  298       -2.321935
  299       -2.202065
  300       -1.977255
  301       -1.930556
  302       -1.857271
  303       -1.761387
  304       -1.513519
  305       -1.241519
  306       -1.222406
  307       -1.048415
  308       -0.921446
  309       -0.834212
  310       -0.815766
  311       -0.687853
  312       -0.548690
  313       -0.450943
  314       -0.357980
  315       -0.124132
  316        0.018187
  317        0.097163
  318        0.238140
  319        0.295161
  320        0.476339
  321        0.624237
  322        0.709049
  323        0.997967
  324        1.046782
  325        1.330205
  326        1.660467
  327        1.945023
  328        2.297830
  329        2.517045
  330        2.813195
  331        2.964817
  332        2.975241
  333        3.416940
  334        3.596654
  335        3.800669
  336        4.041772
  337        4.253473
  338        4.406570
  339        4.520742
  340        4.541040
  341        4.658657
  342        4.759404
  343        4.872872
  344        4.982110
  345        5.056419
  346        5.199926
  347        5.294183
  348        5.351406
  349        5.433836
  350        5.512418
  351        5.624190
  352        5.762128
  353        5.818478
  354        5.916423
  355        5.978989
  356        6.090664
  357        6.234800
  358        6.419515
  359        6.475529
  360        6.535720
  361        6.677333
  362        6.786803
  363        6.895116
  364        6.926969
  365        6.948893
  366        7.023713
  367        7.075903
  368        7.088880
  369        7.144942
  370        7.231382
  371        7.338831
  372        7.528889
 
  0.0000000E+00  0.2500000E+00  0.0000000E+00  0.1250000E+00
    1      -71.663611
    2      -71.564285
    3      -71.554532
    4      -71.503491
    5      -71.392219
    6      -71.364750
    7      -71.281153
    8      -71.273244
    9      -71.210953
   10      -71.202302
   11      -71.188786
   12      -71.166890
   13      -71.138452
   14      -71.086172
   15      -71.064075
   16      -71.008178
   17      -71.001564
   18      -70.997450
   19      -70.991833
   20      -70.985309
   21      -70.976243
   22      -70.973099
   23      -70.972780
   24      -70.970239
   25      -70.966623
   26      -70.962439
   27      -70.956737
   28      -70.952801
   29      -70.950495
   30      -70.945694
   31      -70.940865
   32      -70.936679
   33      -70.933588
   34      -70.931314
   35      -70.925804
   36      -70.925199
   37      -70.921283
   38      -70.919586
   39      -70.916674
   40      -70.912362
   41      -70.908206
   42      -70.907698
   43      -70.906117
   44      -70.903190
   45      -70.899907
   46      -70.898820
   47      -70.896536
   48      -70.893920
   49      -70.890346
   50      -70.888632
   51      -70.886442
   52      -70.874357
   53      -70.869072
   54      -70.860422
   55      -70.858658
   56      -70.851123
   57      -70.841879
   58      -70.838126
   59      -70.835078
   60      -70.823417
   61      -70.815248
   62      -70.811729
   63      -70.810333
   64      -70.803291
   65      -70.795670
   66      -70.792810
   67      -70.786037
   68      -70.776581
   69      -70.773240
   70      -70.766209
   71      -70.761167
   72      -70.758074
   73      -70.749583
   74      -70.740479
   75      -70.737350
   76      -70.734327
   77      -70.725918
   78      -70.723703
   79      -70.718836
   80      -70.714566
   81      -70.706034
   82      -70.698663
   83      -70.692392
   84      -70.691032
   85      -70.685696
   86      -70.668419
   87      -70.666425
   88      -70.660117
   89      -70.656220
   90      -70.653589
   91      -70.645657
   92      -70.641378
   93      -70.640423
   94      -70.634024
   95      -70.616109
   96      -70.613379
   97      -70.603931
   98      -70.600127
   99      -70.598376
  100      -70.597439
  101      -70.595855
  102      -70.591244
  103      -70.588006
  104      -70.577135
  105      -70.550975
  106      -70.521915
  107      -70.469576
  108      -70.450812
  109      -12.491185
  110      -11.867242
  111       -9.786089
  112       -8.351882
  113       -8.124521
  114       -7.460299
  115       -7.383242
  116       -7.091552
  117       -7.020853
  118       -6.611926
  119       -6.481994
  120       -6.392802
  121       -6.354731
  122       -6.259969
  123       -6.177119
  124       -6.138598
  125       -6.038498
  126       -5.976454
  127       -5.903130
  128       -5.775899
  129       -5.742977
  130       -5.698995
  131       -5.523015
  132       -5.484771
  133       -5.427189
  134       -5.351207
  135       -5.336117
  136       -5.295074
  137       -5.274164
  138       -5.261282
  139       -5.224225
  140       -5.212362
  141       -5.192555
  142       -5.178788
  143       -5.167293
  144       -5.150122
  145       -5.129981
  146       -5.104572
  147       -5.051503
  148       -5.021206
  149       -5.002314
  150       -4.950833
  151       -4.927539
  152       -4.912287
  153       -4.881067
  154       -4.848131
  155       -4.817529
  156       -4.800512
  157       -4.770733
  158       -4.731643
  159       -4.690289
  160       -4.670470
  161       -4.654773
  162       -4.635169
  163       -4.616525
  164       -4.578261
  165       -4.555557
  166       -4.518900
  167       -4.509388
  168       -4.483022
  169       -4.451643
  170       -4.441705
  171       -4.432830
  172       -4.395957
  173       -4.364456
  174       -4.338548
  175       -4.306590
  176       -4.298806
  177       -4.258275
  178       -4.245556
  179       -4.231003
  180       -4.198290
  181       -4.165494
  182       -4.147811
  183       -4.142919
  184       -4.112210
  185       -4.096866
  186       -4.078146
  187       -4.071966
  188       -4.026672
  189       -4.021451
  190       -4.000586
  191       -3.988776
  192       -3.972742
  193       -3.963402
  194       -3.938911
  195       -3.919356
  196       -3.901694
  197       -3.891970
  198       -3.881886
  199       -3.868248
  200       -3.853666
  201       -3.825931
  202       -3.807253
  203       -3.798984
  204       -3.789666
  205       -3.775428
  206       -3.764373
  207       -3.756682
  208       -3.745368
  209       -3.736199
  210       -3.729515
  211       -3.720496
  212       -3.704650
  213       -3.689848
  214       -3.674982
  215       -3.660488
  216       -3.640756
  217       -3.612075
  218       -3.598467
  219       -3.588248
  220       -3.579019
  221       -3.572956
  222       -3.566255
  223       -3.544959
  224       -3.528547
  225       -3.515056
  226       -3.503541
  227       -3.470963