       N       E                     dE             d eps       ncg     rms          rms(c)
DAV:   1     0.608632334137E+04    0.60863E+04   -0.40304E+05  9400   0.161E+03
DAV:   2     0.165465930483E+03   -0.59209E+04   -0.57676E+04  7820   0.532E+02
DAV:   3    -0.161283416157E+03   -0.32675E+03   -0.31480E+03  8176   0.152E+02
DAV:   4    -0.171183000658E+03   -0.98996E+01   -0.97638E+01  7928   0.244E+01
DAV:   5    -0.171534815383E+03   -0.35181E+00   -0.35166E+00  8712   0.438E+00    0.601E+01
DAV:   6    -0.206226060853E+03   -0.34691E+02   -0.44210E+02  8888   0.106E+02    0.785E+01
DAV:   7    -0.155914570792E+03    0.50311E+02   -0.10443E+02  9408   0.928E+01    0.520E+01
DAV:   8    -0.152214740880E+03    0.36998E+01   -0.82893E+01  9508   0.658E+01    0.327E+01
DAV:   9    -0.147000756615E+03    0.52140E+01   -0.41245E+01  9604   0.573E+01    0.230E+01
DAV:  10    -0.135440198254E+03    0.11561E+02   -0.23452E+01  8864   0.307E+01    0.955E+00
DAV:  11    -0.136062906336E+03   -0.62271E+00   -0.11070E+01  8912   0.162E+01    0.117E+01
DAV:  12    -0.135638694582E+03    0.42421E+00   -0.61112E+00  8152   0.784E+00    0.634E+00
DAV:  13    -0.135354878543E+03    0.28382E+00   -0.24773E+00  8136   0.942E+00    0.553E+00
DAV:  14    -0.135264529953E+03    0.90349E-01   -0.29374E-01  8088   0.171E+00    0.399E+00
DAV:  15    -0.135266340702E+03   -0.18107E-02   -0.14321E-01  8192   0.302E+00    0.385E+00
DAV:  16    -0.135491749535E+03   -0.22541E+00   -0.47693E-01  7988   0.371E+00    0.635E+00
DAV:  17    -0.135183980538E+03    0.30777E+00   -0.59308E-01  8272   0.337E+00    0.216E+00
DAV:  18    -0.135178280248E+03    0.57003E-02   -0.25452E-01  8400   0.190E+00    0.139E+00
DAV:  19    -0.135187050611E+03   -0.87704E-02   -0.34738E-02  7720   0.636E-01    0.142E+00
DAV:  20    -0.135189748387E+03   -0.26978E-02   -0.43966E-03  7800   0.203E-01    0.144E+00
DAV:  21    -0.135183073933E+03    0.66745E-02   -0.47642E-03  7884   0.593E-01    0.124E+00
DAV:  22    -0.135169696212E+03    0.13378E-01   -0.28460E-02 10328   0.647E-01    0.496E-01
DAV:  23    -0.135175739531E+03   -0.60433E-02   -0.39454E-02  9368   0.578E-01    0.688E-01
DAV:  24    -0.135173684809E+03    0.20547E-02   -0.45388E-03  7684   0.260E-01    0.618E-01
DAV:  25    -0.135170219582E+03    0.34652E-02   -0.26407E-03  9960   0.279E-01    0.400E-01
DAV:  26    -0.135169067530E+03    0.11521E-02   -0.46690E-03  7884   0.152E-01    0.166E-01
DAV:  27    -0.135168915703E+03    0.15183E-03   -0.97571E-04  8388   0.238E-01    0.116E-01
DAV:  28    -0.135169208300E+03   -0.29260E-03   -0.12990E-03  7684   0.103E-01    0.196E-01
DAV:  29    -0.135169140169E+03    0.68131E-04   -0.28287E-04  7056   0.747E-02    0.140E-01
DAV:  30    -0.135170865336E+03   -0.17252E-02   -0.33621E-03  7996   0.342E-01    0.305E-01
DAV:  31    -0.135169676182E+03    0.11892E-02   -0.23569E-03  8684   0.254E-01    0.100E-01
DAV:  32    -0.135169763069E+03   -0.86887E-04   -0.45452E-04  6736   0.670E-02    0.529E-02
DAV:  33    -0.135170259120E+03   -0.49605E-03   -0.99195E-04  7092   0.185E-01    0.149E-01
DAV:  34    -0.135169941456E+03    0.31766E-03   -0.16922E-03  4804   0.237E-01    0.500E-02
DAV:  35    -0.135170160007E+03   -0.21855E-03   -0.23261E-04  6708   0.805E-02    0.101E-01
DAV:  36    -0.135170126423E+03    0.33584E-04   -0.29152E-04  6376   0.801E-02    0.328E-02
DAV:  37    -0.135170155924E+03   -0.29501E-04   -0.28720E-05  5200   0.199E-02    0.175E-02
DAV:  38    -0.135170168970E+03   -0.13045E-04   -0.69791E-06  4504   0.679E-03    0.147E-02
DAV:  39    -0.135170180120E+03   -0.11151E-04   -0.46121E-06  4372   0.106E-02    0.100E-02
DAV:  40    -0.135170216566E+03   -0.36446E-04   -0.87305E-06  4528   0.875E-03    0.103E-02
DAV:  41    -0.135170224537E+03   -0.79714E-05   -0.22606E-06  4488   0.529E-03
   1 F= -.14881463E+03 E0= -.14876440E+03  d E =-.148815E+03
       N       E                     dE             d eps       ncg     rms          rms(c)
DAV:   1    -0.133232671002E+03    0.19375E+01   -0.84810E+01  9440   0.805E+01    0.604E+00
DAV:   2    -0.136585559315E+03   -0.33529E+01   -0.28908E+01  7996   0.115E+01    0.687E+00
DAV:   3    -0.138204884193E+03   -0.16193E+01   -0.10446E+01 10988   0.221E+01    0.124E+01
DAV:   4    -0.135653664005E+03    0.25512E+01   -0.52891E+00  9272   0.153E+01    0.230E+00
DAV:   5    -0.135666397799E+03   -0.12734E-01   -0.22016E-01  9092   0.308E+00    0.180E+00
DAV:   6    -0.135668295645E+03   -0.18978E-02   -0.76757E-02  7920   0.115E+00    0.146E+00
DAV:   7    -0.135668092987E+03    0.20266E-03   -0.66479E-03  8392   0.598E-01    0.129E+00
DAV:   8    -0.135666600113E+03    0.14929E-02   -0.35442E-03  8136   0.466E-01    0.111E+00
DAV:   9    -0.135668312576E+03   -0.17125E-02   -0.72637E-03  9560   0.686E-01    0.733E-01
DAV:  10    -0.135668652548E+03   -0.33997E-03   -0.88255E-03  9456   0.875E-01    0.516E-01
DAV:  11    -0.135668470188E+03    0.18236E-03   -0.24227E-03  8180   0.293E-01    0.490E-01
DAV:  12    -0.135668267828E+03    0.20236E-03   -0.31709E-04  8064   0.128E-01    0.423E-01
DAV:  13    -0.135666926942E+03    0.13409E-02   -0.22543E-03  8008   0.187E-01    0.132E-01
DAV:  14    -0.135666991369E+03   -0.64426E-04   -0.41888E-04  8600   0.163E-01    0.116E-01
DAV:  15    -0.135666996839E+03   -0.54699E-05   -0.10374E-04  6944   0.507E-02    0.103E-01
DAV:  16    -0.135666967250E+03    0.29588E-04   -0.17424E-05  4992   0.367E-02    0.749E-02
DAV:  17    -0.135666947234E+03    0.20016E-04   -0.69025E-05  6444   0.374E-02    0.364E-02
DAV:  18    -0.135666950342E+03   -0.31080E-05   -0.15846E-05  4880   0.195E-02
   2 F= -.14929544E+03 E0= -.14924715E+03  d E =-.480806E+00
       N       E                     dE             d eps       ncg     rms          rms(c)
DAV:   1    -0.113206772144E+03    0.22460E+02   -0.73408E+02  8576   0.221E+02    0.221E+01
DAV:   2    -0.143684985453E+03   -0.30478E+02   -0.27491E+02  9248   0.714E+01    0.426E+01
DAV:   3    -0.140646592458E+03    0.30384E+01   -0.37961E+01  9272   0.349E+01    0.168E+01
DAV:   4    -0.151206408994E+03   -0.10560E+02   -0.40728E+01  8656   0.591E+01    0.307E+01
DAV:   5    -0.137614662178E+03    0.13592E+02   -0.24098E+01  8620   0.328E+01    0.912E+00
DAV:   6    -0.137264982949E+03    0.34968E+00   -0.37777E+00  9284   0.101E+01    0.519E+00
DAV:   7    -0.137354738987E+03   -0.89756E-01   -0.10501E+00  8128   0.495E+00    0.456E+00
DAV:   8    -0.137329198210E+03    0.25541E-01   -0.17076E-01  7984   0.272E+00    0.384E+00
DAV:   9    -0.137335236095E+03   -0.60379E-02   -0.46632E-02 10068   0.120E+00    0.356E+00
DAV:  10    -0.137305941451E+03    0.29295E-01   -0.49560E-02  9620   0.127E+00    0.269E+00
DAV:  11    -0.137295144551E+03    0.10797E-01   -0.49122E-02  9500   0.147E+00    0.159E+00
DAV:  12    -0.137293476071E+03    0.16685E-02   -0.23186E-02  7648   0.910E-01    0.145E+00
DAV:  13    -0.137291904983E+03    0.15711E-02   -0.44239E-03  8684   0.577E-01    0.129E+00
DAV:  14    -0.137282755384E+03    0.91496E-02   -0.12611E-02  9344   0.117E+00    0.616E-01
DAV:  15    -0.137283372103E+03   -0.61672E-03   -0.99673E-03  9080   0.414E-01    0.431E-01
DAV:  16    -0.137283134613E+03    0.23749E-03   -0.10936E-03  7488   0.260E-01    0.324E-01
DAV:  17    -0.137283072980E+03    0.61633E-04   -0.55615E-04  7900   0.221E-01    0.206E-01
DAV:  18    -0.137283046822E+03    0.26159E-04   -0.36971E-04  7540   0.187E-01    0.127E-01
DAV:  19    -0.137283067450E+03   -0.20629E-04   -0.12902E-04  8532   0.917E-02    0.108E-01
DAV:  20    -0.137283076970E+03   -0.95202E-05   -0.43893E-05  6696   0.358E-02
   3 F= -.15083482E+03 E0= -.15079181E+03  d E =-.202018E+01
       N       E                     dE             d eps       ncg     rms          rms(c)
DAV:   1    -0.255184076887E+02    0.11176E+03   -0.32355E+03  7544   0.358E+02    0.510E+01
DAV:   2    -0.222946250529E+03   -0.19743E+03   -0.98190E+02  8724   0.208E+02    0.348E+02
DAV:   3    -0.262806528642E+03   -0.39860E+02   -0.40065E+02  7976   0.373E+01    0.204E+02
DAV:   4    -0.196148292176E+03    0.66658E+02   -0.84982E+01 10964   0.970E+01    0.124E+02
DAV:   5    -0.149679777280E+03    0.46469E+02   -0.12157E+02 10068   0.640E+01    0.788E+01
DAV:   6    -0.132591209833E+03    0.17089E+02   -0.48889E+01  9424   0.473E+01    0.413E+01
DAV:   7    -0.130283832986E+03    0.23074E+01   -0.20299E+01  8656   0.265E+01    0.363E+01
DAV:   8    -0.128148359246E+03    0.21355E+01   -0.74950E+00  8176   0.171E+01    0.257E+01
DAV:   9    -0.127472392183E+03    0.67597E+00   -0.14129E+00  8536   0.662E+00    0.213E+01
DAV:  10    -0.127202289548E+03    0.27010E+00   -0.57849E-01  8360   0.566E+00    0.208E+01
DAV:  11    -0.126853723531E+03    0.34857E+00   -0.21785E-01 10012   0.547E+00    0.197E+01
DAV:  12    -0.126701600995E+03    0.15212E+00   -0.85598E-01  9636   0.700E+00    0.158E+01
DAV:  13    -0.126727360620E+03   -0.25760E-01   -0.39400E-01  8216   0.302E+00    0.156E+01
DAV:  14    -0.126712209320E+03    0.15151E-01   -0.75400E-02  8400   0.247E+00    0.162E+01
DAV:  15    -0.126706299172E+03    0.59101E-02   -0.42025E-02  8904   0.113E+00    0.163E+01
DAV:  16    -0.126701974225E+03    0.43249E-02   -0.21832E-02  8400   0.151E+00    0.161E+01
DAV:  17    -0.126704469263E+03   -0.24950E-02   -0.15133E-02  9432   0.680E-01    0.164E+01
DAV:  18    -0.126705722390E+03   -0.12531E-02   -0.52563E-03  7856   0.270E-01    0.165E+01
DAV:  19    -0.126705716688E+03    0.57016E-05   -0.48600E-04  7328   0.828E-02    0.164E+01
DAV:  20    -0.126705509532E+03    0.20716E-03   -0.11691E-04  7608   0.130E-01    0.165E+01
DAV:  21    -0.126710214226E+03   -0.47047E-02   -0.27263E-03  8132   0.770E-01    0.165E+01
DAV:  22    -0.126709859347E+03    0.35488E-03   -0.17354E-03  8136   0.164E-01    0.165E+01
DAV:  23    -0.126710025080E+03   -0.16573E-03   -0.16688E-04  6704   0.675E-02    0.165E+01
DAV:  24    -0.126709324137E+03    0.70094E-03   -0.11479E-04  6220   0.913E-02    0.165E+01
DAV:  25    -0.126709239210E+03    0.84927E-04   -0.36511E-05  6368   0.349E-02    0.165E+01
DAV:  26    -0.126709574381E+03   -0.33517E-03   -0.14837E-05  4572   0.290E-02    0.165E+01
DAV:  27    -0.126709319619E+03    0.25476E-03   -0.57951E-05  6840   0.512E-02    0.165E+01
DAV:  28    -0.126709035953E+03    0.28367E-03   -0.26129E-05  5216   0.300E-02    0.165E+01
DAV:  29    -0.126708994637E+03    0.41316E-04   -0.50391E-06  4368   0.712E-03    0.165E+01
DAV:  30    -0.126709125904E+03   -0.13127E-03   -0.44654E-06  4296   0.209E-02    0.165E+01
DAV:  31    -0.126708845890E+03    0.28001E-03   -0.24220E-05  5452   0.346E-02    0.164E+01
DAV:  32    -0.126710867778E+03   -0.20219E-02   -0.10458E-03 10012   0.265E-01    0.163E+01
DAV:  33    -0.126710839608E+03    0.28170E-04   -0.46210E-04  7148   0.803E-02    0.163E+01
DAV:  34    -0.126711049523E+03   -0.20992E-03   -0.47756E-05  6696   0.365E-02    0.163E+01
DAV:  35    -0.126710805266E+03    0.24426E-03   -0.23356E-05  4484   0.333E-02    0.163E+01
DAV:  36    -0.126710417421E+03    0.38785E-03   -0.46376E-05  5820   0.374E-02    0.163E+01
DAV:  37    -0.126710110864E+03    0.30656E-03   -0.40521E-05  6776   0.315E-02    0.163E+01
DAV:  38    -0.126709397189E+03    0.71367E-03   -0.15966E-04  4968   0.829E-02    0.162E+01
DAV:  39    -0.126708877600E+03    0.51959E-03   -0.15583E-04  6892   0.632E-02    0.162E+01
DAV:  40    -0.126708348510E+03    0.52909E-03   -0.16941E-04  7084   0.842E-02    0.160E+01
DAV:  41    -0.126706209546E+03    0.21390E-02   -0.53205E-04  6168   0.185E-01    0.156E+01
DAV:  42    -0.126706868647E+03   -0.65910E-03   -0.15633E-03  7992   0.342E-01    0.150E+01
DAV:  43    -0.126707724930E+03   -0.85628E-03   -0.33477E-03  8136   0.352E-01    0.139E+01
DAV:  44    -0.126701490474E+03    0.62345E-02   -0.41777E-03  7768   0.473E-01    0.131E+01
DAV:  45    -0.126698646315E+03    0.28442E-02   -0.69965E-04  9464   0.143E-01    0.126E+01
DAV:  46    -0.126697224976E+03    0.14213E-02   -0.66908E-03  8940   0.587E-01    0.994E+00
DAV:  47    -0.126697777482E+03   -0.55251E-03   -0.56135E-02  8492   0.992E-01    0.117E+00
DAV:  48    -0.126685681617E+03    0.12096E-01   -0.12566E-02  7872   0.716E-01    0.854E-01
DAV:  49    -0.126679902995E+03    0.57786E-02   -0.20659E-03 11204   0.373E-01    0.708E-01
DAV:  50    -0.126675104345E+03    0.47987E-02   -0.17541E-03  8712   0.271E-01    0.556E-01
DAV:  51    -0.126671117532E+03    0.39868E-02   -0.29934E-03  8048   0.348E-01    0.274E-01
DAV:  52    -0.126671032746E+03    0.84787E-04   -0.37495E-03  7888   0.240E-01    0.159E-01
DAV:  53    -0.126671313089E+03   -0.28034E-03   -0.18202E-03  7632   0.219E-01    0.238E-01
DAV:  54    -0.126671495923E+03   -0.18283E-03   -0.27138E-04  7344   0.661E-02    0.220E-01
DAV:  55    -0.126671742585E+03   -0.24666E-03   -0.14033E-04  7132   0.584E-02    0.179E-01
DAV:  56    -0.126672252199E+03   -0.50961E-03   -0.69901E-05  5160   0.700E-02    0.176E-01
DAV:  57    -0.126672266861E+03   -0.14662E-04   -0.26772E-04  6944   0.135E-01    0.102E-01
DAV:  58    -0.126672309410E+03   -0.42549E-04   -0.26725E-05  4972   0.370E-02    0.727E-02
DAV:  59    -0.126672309668E+03   -0.25809E-06   -0.39804E-05  4628   0.513E-02
   4 F= -.14015871E+03 E0= -.14012047E+03  d E =0.865592E+01
       N       E                     dE             d eps       ncg     rms          rms(c)
DAV:   1    -0.446487596182E+02    0.82024E+02   -0.27974E+03  7840   0.294E+02    0.642E+01
DAV:   2    -0.398036469416E+03   -0.35339E+03   -0.95626E+02  9000   0.278E+02    0.174E+03
DAV:   3    -0.442719935209E+03   -0.44683E+02   -0.70570E+02  8720   0.456E+01    0.209E+03
DAV:   4    -0.380685815853E+03    0.62034E+02   -0.35595E+01 10064   0.138E+01    0.209E+03
DAV:   5    -0.347951566741E+03    0.32734E+02   -0.11783E+01 10888   0.100E+01    0.209E+03
DAV:   6    -0.343405640557E+03    0.45459E+01   -0.16748E+00  8136   0.355E+00    0.209E+03
DAV:   7    -0.354887464790E+03   -0.11482E+02   -0.80788E+00  9788   0.167E+01    0.209E+03
DAV:   8    -0.352069131998E+03    0.28183E+01   -0.13848E+01  9528   0.144E+01    0.210E+03
DAV:   9    -0.326968604234E+03    0.25101E+02   -0.19514E+01 10440   0.226E+01    0.208E+03
DAV:  10    -0.311108640861E+03    0.15860E+02   -0.20539E+01  9608   0.130E+01    0.148E+03
DAV:  11    -0.308458640294E+03    0.26500E+01   -0.19280E+00  8096   0.477E+00    0.148E+03
DAV:  12    -0.312037200086E+03   -0.35786E+01   -0.20370E+00  8520   0.350E+00    0.148E+03
DAV:  13    -0.320851970566E+03   -0.88148E+01   -0.11714E+01  8616   0.235E+01    0.147E+03
DAV:  14    -0.281050835462E+03    0.39801E+02   -0.33036E+01  9668   0.212E+01    0.136E+02
DAV:  15    -0.218292845942E+03    0.62758E+02   -0.13891E+02 10064   0.615E+01    0.104E+02
DAV:  16    -0.181422165154E+03    0.36871E+02   -0.94460E+01  9764   0.393E+01    0.883E+01
DAV:  17    -0.153527302367E+03    0.27895E+02   -0.50160E+01 10076   0.377E+01    0.314E+01
DAV:  18    -0.146824840640E+03    0.67025E+01   -0.21037E+01  8824   0.319E+01    0.251E+01
DAV:  19    -0.142307235690E+03    0.45176E+01   -0.84250E+00  9368   0.177E+01    0.209E+01
DAV:  20    -0.140446619517E+03    0.18606E+01   -0.30268E+00  8324   0.101E+01    0.173E+01
DAV:  21    -0.139844477995E+03    0.60214E+00   -0.27666E+00  8696   0.106E+01    0.153E+01
DAV:  22    -0.140237178023E+03   -0.39270E+00   -0.16703E+00  9644   0.872E+00    0.176E+01
DAV:  23    -0.142611715691E+03   -0.23745E+01   -0.28177E+00  9364   0.953E+00    0.255E+01
DAV:  24    -0.143081695931E+03   -0.46998E+00   -0.10512E+00  7880   0.349E+00    0.286E+01
DAV:  25    -0.143607521620E+03   -0.52583E+00   -0.70926E-02  8216   0.154E+00    0.307E+01
DAV:  26    -0.144745311011E+03   -0.11378E+01   -0.64035E-02  8400   0.197E+00    0.363E+01
DAV:  27    -0.149150188667E+03   -0.44049E+01   -0.46149E-01  8168   0.396E+00    0.550E+01
DAV:  28    -0.150550245895E+03   -0.14001E+01   -0.20491E-01  7928   0.146E+00    0.607E+01
DAV:  29    -0.149895839462E+03    0.65441E+00   -0.38874E-02  8032   0.131E+00    0.582E+01
DAV:  30    -0.149889021195E+03    0.68183E-02   -0.46335E-03  8488   0.248E-01    0.580E+01
DAV:  31    -0.149705627325E+03    0.18339E+00   -0.18924E-03  8704   0.418E-01    0.560E+01
DAV:  32    -0.150161075756E+03   -0.45545E+00   -0.66288E-03  8792   0.733E-01    0.591E+01
DAV:  33    -0.149842346396E+03    0.31873E+00   -0.28958E-03  8536   0.449E-01    0.564E+01
DAV:  34    -0.149228962663E+03    0.61338E+00   -0.19408E-02  9104   0.160E+00    0.586E+01
DAV:  35    -0.147855620070E+03    0.13733E+01   -0.84099E-02  9576   0.257E+00    0.610E+01
DAV:  36    -0.145391615172E+03    0.24640E+01   -0.32069E-01  8704   0.309E+00    0.641E+01
DAV:  37    -0.143861236776E+03    0.15304E+01   -0.14266E-01  8584   0.305E+00    0.603E+01
DAV:  38    -0.142012905410E+03    0.18483E+01   -0.29798E-01  8640   0.248E+00    0.650E+01
DAV:  39    -0.140840360542E+03    0.11725E+01   -0.28374E-01  8552   0.175E+00    0.699E+01
DAV:  40    -0.140173450076E+03    0.66691E+00   -0.19634E-01  8464   0.166E+00    0.741E+01
DAV:  41    -0.140131376096E+03    0.42074E-01   -0.53943E-02  7972   0.661E-01    0.745E+01
DAV:  42    -0.140120911746E+03    0.10464E-01   -0.12093E-02  8968   0.801E-01    0.719E+01
DAV:  43    -0.142032312022E+03   -0.19114E+01   -0.14927E+00  8376   0.725E+00    0.362E+01
DAV:  44    -0.144690803540E+03   -0.26585E+01   -0.84188E-01  9684   0.583E+00    0.257E+01
DAV:  45    -0.145493657968E+03   -0.80285E+00   -0.35826E-01  7992   0.188E+00    0.271E+01
DAV:  46    -0.145107538371E+03    0.38612E+00   -0.53973E-02  8072   0.134E+00    0.269E+01
DAV:  47    -0.139451289522E+03    0.56562E+01   -0.12239E+01 10136   0.170E+01    0.200E+01
DAV:  48    -0.139619470184E+03   -0.16818E+00   -0.24952E+00  7888   0.336E+00    0.201E+01
DAV:  49    -0.139218197186E+03    0.40127E+00   -0.90219E-02  8856   0.138E+00    0.175E+01
DAV:  50    -0.138816823761E+03    0.40137E+00   -0.10772E-01  8680   0.311E+00    0.169E+01
DAV:  51    -0.138368365754E+03    0.44846E+00   -0.21272E-01  8236   0.298E+00    0.221E+01
DAV:  52    -0.142572870018E+03   -0.42045E+01   -0.20177E+00 10424   0.129E+01    0.456E+01
DAV:  53    -0.141525481595E+03    0.10474E+01   -0.35359E+00  8504   0.296E+00    0.414E+01
DAV:  54    -0.140724000827E+03    0.80148E+00   -0.88060E-01 10688   0.327E+00    0.396E+01
DAV:  55    -0.138258429514E+03    0.24656E+01   -0.47407E+00  9864   0.809E+00    0.334E+01
DAV:  56    -0.137854569248E+03    0.40386E+00   -0.70114E-01  9264   0.388E+00    0.308E+01
DAV:  57    -0.138947502285E+03   -0.10929E+01   -0.28325E+00  9532   0.189E+01    0.911E+00
DAV:  58    -0.138987861499E+03   -0.40359E-01   -0.14070E+00  9588   0.100E+01    0.104E+01
DAV:  59    -0.139212985972E+03   -0.22512E+00   -0.89643E-01  8432   0.663E+00    0.104E+01
DAV:  60    -0.139289544921E+03   -0.76559E-01   -0.27487E-01  8728   0.370E+00
   5 F= -.15283700E+03 E0= -.15278966E+03  d E =-.402237E+01
       N       E                     dE             d eps       ncg     rms          rms(c)
DAV:   1    -0.137380415996E+03    0.18326E+01   -0.57255E+01  9216   0.651E+01    0.939E+00
DAV:   2    -0.139298638280E+03   -0.19182E+01   -0.23550E+01  9652   0.269E+01    0.117E+01
DAV:   3    -0.138978549411E+03    0.32009E+00   -0.56840E+00  7856   0.205E+01    0.580E+00
DAV:   4    -0.139683202350E+03   -0.70465E+00   -0.68468E+00  8612   0.226E+01    0.771E+00
DAV:   5    -0.138476549825E+03    0.12067E+01   -0.22747E+00  9212   0.137E+01    0.299E+00
DAV:   6    -0.138355528861E+03    0.12102E+00   -0.67434E-01  8680   0.544E+00    0.336E+00
DAV:   7    -0.138174742914E+03    0.18079E+00   -0.27940E-01  7792   0.432E+00    0.165E+00
DAV:   8    -0.138045090213E+03    0.12965E+00   -0.82883E-02  8168   0.226E+00    0.114E+00
DAV:   9    -0.138011634105E+03    0.33456E-01   -0.31546E-02  8032   0.155E+00    0.120E+00
DAV:  10    -0.137955531943E+03    0.56102E-01   -0.16622E-02  8968   0.934E-01    0.945E-01
DAV:  11    -0.137846514315E+03    0.10902E+00   -0.16154E-02  8056   0.150E+00    0.536E-01
DAV:  12    -0.137781573848E+03    0.64940E-01   -0.19821E-02  7824   0.616E-01    0.493E-01
DAV:  13    -0.137759802889E+03    0.21771E-01   -0.94239E-03  7920   0.679E-01    0.577E-01
DAV:  14    -0.137742741054E+03    0.17062E-01   -0.38027E-03  8168   0.434E-01    0.405E-01
DAV:  15    -0.137731727955E+03    0.11013E-01   -0.31477E-03  9400   0.466E-01    0.226E-01
DAV:  16    -0.137731701734E+03    0.26221E-04   -0.21627E-03  9056   0.277E-01    0.121E-01
DAV:  17    -0.137733311583E+03   -0.16098E-02   -0.10563E-03  7488   0.156E-01    0.123E-01
DAV:  18    -0.137734235991E+03   -0.92441E-03   -0.25034E-04  7128   0.886E-02    0.108E-01
DAV:  19    -0.137736136071E+03   -0.19001E-02   -0.27849E-04  7036   0.688E-02    0.806E-02
DAV:  20    -0.137737360341E+03   -0.12243E-02   -0.16819E-04  6752   0.837E-02    0.394E-02
DAV:  21    -0.137738317943E+03   -0.95760E-03   -0.14673E-04  6644   0.605E-02    0.368E-02
DAV:  22    -0.137738979798E+03   -0.66186E-03   -0.10908E-04  6668   0.379E-02    0.258E-02
DAV:  23    -0.137739312593E+03   -0.33280E-03   -0.37243E-05  6104   0.372E-02    0.154E-02
DAV:  24    -0.137739599147E+03   -0.28655E-03   -0.23949E-05  5108   0.157E-02    0.120E-02
DAV:  25    -0.137739699398E+03   -0.10025E-03   -0.75155E-06  4744   0.123E-02    0.101E-02
DAV:  26    -0.137739795575E+03   -0.96178E-04   -0.42002E-06  4616   0.992E-03    0.101E-02
DAV:  27    -0.137739883549E+03   -0.87973E-04   -0.44731E-06  4644   0.609E-03    0.807E-03
DAV:  28    -0.137739954450E+03   -0.70902E-04   -0.78653E-05  4428   0.685E-02    0.403E-02
DAV:  29    -0.137739991180E+03   -0.36729E-04   -0.11443E-05  4544   0.222E-02    0.538E-02
DAV:  30    -0.137740019609E+03   -0.28429E-04   -0.84896E-06  4376   0.138E-02    0.635E-02
DAV:  31    -0.137740041808E+03   -0.22199E-04   -0.86706E-06  4424   0.823E-03    0.675E-02
DAV:  32    -0.137740047747E+03   -0.59385E-05   -0.33517E-06  4416   0.481E-03
   6 F= -.15127928E+03 E0= -.15123879E+03  d E =-.246465E+01
       N       E                     dE             d eps       ncg     rms          rms(c)
DAV:   1    -0.119621515059E+03    0.18119E+02   -0.46376E+02  9904   0.181E+02    0.315E+01
DAV:   2    -0.142171973962E+03   -0.22550E+02   -0.18030E+02 10436   0.594E+01    0.423E+01
DAV:   3    -0.141823743981E+03    0.34823E+00   -0.40653E+01  9000   0.506E+01    0.173E+01
DAV:   4    -0.157477558530E+03   -0.15654E+02   -0.52984E+01  8992   0.766E+01    0.426E+01
DAV:   5    -0.138810026656E+03    0.18668E+02   -0.26707E+01  9676   0.302E+01    0.166E+01
DAV:   6    -0.136514514600E+03    0.22955E+01   -0.34604E+00  9748   0.149E+01    0.827E+00
DAV:   7    -0.136405625430E+03    0.10889E+00   -0.18373E+00  8928   0.645E+00    0.690E+00
DAV:   8    -0.136409554093E+03   -0.39287E-02   -0.61438E-01  8032   0.343E+00    0.561E+00
DAV:   9    -0.136365479464E+03    0.44075E-01   -0.19643E-01  8068   0.478E+00    0.473E+00
DAV:  10    -0.136364799005E+03    0.68046E-03   -0.54002E-02  9808   0.146E+00    0.411E+00
DAV:  11    -0.136332253069E+03    0.32546E-01   -0.85942E-02  8148   0.211E+00    0.226E+00
DAV:  12    -0.136335280425E+03   -0.30274E-02   -0.50100E-02  7788   0.123E+00    0.173E+00
DAV:  13    -0.136332696998E+03    0.25834E-02   -0.16502E-02  8228   0.920E-01    0.139E+00
DAV:  14    -0.136329302227E+03    0.33948E-02   -0.82339E-03  9980   0.976E-01    0.824E-01
DAV:  15    -0.136331109444E+03   -0.18072E-02   -0.83593E-03  7696   0.395E-01    0.806E-01
DAV:  16    -0.136329368119E+03    0.17413E-02   -0.78177E-03  7916   0.855E-01    0.415E-01
DAV:  17    -0.136329468987E+03   -0.10087E-03   -0.20737E-03  7736   0.143E-01    0.383E-01
DAV:  18    -0.136329385651E+03    0.83336E-04   -0.32313E-04  7844   0.159E-01    0.281E-01
DAV:  19    -0.136329245452E+03    0.14020E-03   -0.57782E-04  8308   0.179E-01    0.159E-01
DAV:  20    -0.136329181017E+03    0.64435E-04   -0.27649E-04  7352   0.133E-01    0.108E-01
DAV:  21    -0.136329208258E+03   -0.27240E-04   -0.80553E-05  6840   0.395E-02    0.936E-02
DAV:  22    -0.136329219467E+03   -0.11209E-04   -0.13767E-05  4832   0.277E-02    0.821E-02
DAV:  23    -0.136329229541E+03   -0.10074E-04   -0.16089E-05  4620   0.334E-02    0.601E-02
DAV:  24    -0.136329266368E+03   -0.36827E-04   -0.82541E-05  7880   0.855E-02    0.231E-02
DAV:  25    -0.136329275382E+03   -0.90136E-05   -0.54047E-05  6612   0.245E-02
   7 F= -.14983940E+03 E0= -.14980301E+03  d E =-.102476E+01
       N       E                     dE             d eps       ncg     rms          rms(c)
DAV:   1    -0.122031660135E+03    0.14298E+02   -0.37342E+02 10268   0.150E+02    0.315E+01
DAV:   2    -0.138127915072E+03   -0.16096E+02   -0.16033E+02  8100   0.295E+01    0.147E+01
DAV:   3    -0.143300602289E+03   -0.51727E+01   -0.23139E+01  8664   0.422E+01    0.194E+01
DAV:   4    -0.137868911762E+03    0.54317E+01   -0.10059E+01  9400   0.294E+01    0.105E+01
DAV:   5    -0.137812746407E+03    0.56165E-01   -0.11234E+00 10308   0.714E+00    0.976E+00
DAV:   6    -0.137851467605E+03   -0.38721E-01   -0.39832E-01  7960   0.259E+00    0.929E+00
DAV:   7    -0.137842549927E+03    0.89177E-02   -0.58278E-02  8136   0.186E+00    0.805E+00
DAV:   8    -0.137820395930E+03    0.22154E-01   -0.28995E-01  8712   0.388E+00    0.378E+00
DAV:   9    -0.137779893053E+03    0.40503E-01   -0.20079E-01  8548   0.353E+00    0.193E+00
DAV:  10    -0.137782147085E+03   -0.22540E-02   -0.43203E-02  9428   0.138E+00    0.168E+00
DAV:  11    -0.137778642049E+03    0.35050E-02   -0.13303E-02  8216   0.948E-01    0.137E+00
DAV:  12    -0.137774789478E+03    0.38526E-02   -0.53328E-03  8936   0.698E-01    0.906E-01
DAV:  13    -0.137775160748E+03   -0.37127E-03   -0.34821E-03  9324   0.380E-01    0.721E-01
DAV:  14    -0.137773843874E+03    0.13169E-02   -0.49326E-03  7924   0.471E-01    0.405E-01
DAV:  15    -0.137773892458E+03   -0.48584E-04   -0.14179E-03  8248   0.176E-01    0.272E-01
DAV:  16    -0.137774009354E+03   -0.11690E-03   -0.43059E-04  7404   0.111E-01    0.193E-01
DAV:  17    -0.137773977907E+03    0.31447E-04   -0.33480E-04  7100   0.104E-01    0.125E-01
DAV:  18    -0.137773987666E+03   -0.97590E-05   -0.14513E-04  7028   0.113E-01    0.120E-01
DAV:  19    -0.137774015800E+03   -0.28134E-04   -0.98523E-05  6652   0.554E-02    0.756E-02
DAV:  20    -0.137774055801E+03   -0.40001E-04   -0.57321E-05  4716   0.809E-02    0.388E-02
DAV:  21    -0.137774058109E+03   -0.23076E-05   -0.30555E-05  4932   0.348E-02
   8 F= -.15131117E+03 E0= -.15127111E+03  d E =-.249654E+01
       N       E                     dE             d eps       ncg     rms          rms(c)
DAV:   1    -0.124021141862E+03    0.13753E+02   -0.39105E+02 10536   0.199E+02    0.212E+01
DAV:   2    -0.138846750957E+03   -0.14826E+02   -0.14552E+02  8808   0.375E+01    0.171E+01
DAV:   3    -0.142302053113E+03   -0.34553E+01   -0.24650E+01  8296   0.429E+01    0.153E+01
DAV:   4    -0.140328209992E+03    0.19738E+01   -0.21417E+01  8580   0.432E+01    0.113E+01
DAV:   5    -0.138102841816E+03    0.22254E+01   -0.33463E+00 10512   0.169E+01    0.558E+00
DAV:   6    -0.138131806731E+03   -0.28965E-01   -0.10088E+00  8048   0.452E+00    0.471E+00
DAV:   7    -0.138134037442E+03   -0.22307E-02   -0.16805E-01  8448   0.144E+00    0.421E+00
DAV:   8    -0.138134903945E+03   -0.86650E-03   -0.30535E-02  8060   0.987E-01    0.382E+00
DAV:   9    -0.138137614933E+03   -0.27110E-02   -0.25292E-02  9108   0.126E+00    0.286E+00
DAV:  10    -0.138124176431E+03    0.13439E-01   -0.43969E-02  8392   0.184E+00    0.110E+00
DAV:  11    -0.138125362723E+03   -0.11863E-02   -0.19719E-02  8972   0.776E-01    0.844E-01
DAV:  12    -0.138125282941E+03    0.79781E-04   -0.57575E-03  7728   0.296E-01    0.788E-01
DAV:  13    -0.138125308309E+03   -0.25368E-04   -0.26707E-04  7860   0.464E-02    0.791E-01
DAV:  14    -0.138124902974E+03    0.40534E-03   -0.22742E-04  8088   0.109E-01    0.716E-01
DAV:  15    -0.138124258295E+03    0.64468E-03   -0.48017E-04  8648   0.180E-01    0.572E-01
DAV:  16    -0.138123689373E+03    0.56892E-03   -0.20269E-03  8104   0.280E-01    0.436E-01
DAV:  17    -0.138123744038E+03   -0.54666E-04   -0.79023E-04  8172   0.121E-01    0.409E-01
DAV:  18    -0.138123619789E+03    0.12425E-03   -0.28422E-04  7688   0.137E-01    0.384E-01
DAV:  19    -0.138123512992E+03    0.10680E-03   -0.20769E-04  7420   0.103E-01    0.375E-01
DAV:  20    -0.138123542530E+03   -0.29538E-04   -0.12470E-04  6960   0.690E-02    0.401E-01
DAV:  21    -0.138123549850E+03   -0.73203E-05   -0.46656E-05  6736   0.301E-02
   9 F= -.15165163E+03 E0= -.15161423E+03  d E =-.340460E+00
       N       E                     dE             d eps       ncg     rms          rms(c)
DAV:   1    -0.137719928127E+03    0.40361E+00   -0.97776E+00  9480   0.332E+01    0.226E+00
DAV:   2    -0.138120978428E+03   -0.40105E+00   -0.41114E+00  7648   0.403E+00    0.967E-01
DAV:   3    -0.138132132961E+03   -0.11155E-01   -0.14758E-01  9824   0.136E+00    0.772E-01
DAV:   4    -0.138132772010E+03   -0.63905E-03   -0.16983E-02  8236   0.843E-01    0.692E-01
DAV:   5    -0.138133219737E+03   -0.44773E-03   -0.15437E-02  8220   0.106E+00    0.665E-01
DAV:   6    -0.138131181927E+03    0.20378E-02   -0.66642E-03  8312   0.791E-01    0.443E-01
DAV:   7    -0.138131363219E+03   -0.18129E-03   -0.31020E-03 10200   0.504E-01    0.213E-01
DAV:   8    -0.138130954714E+03    0.40851E-03   -0.15948E-03  9940   0.270E-01    0.905E-02
DAV:   9    -0.138130961269E+03   -0.65546E-05   -0.32670E-04  7720   0.868E-02    0.717E-02
DAV:  10    -0.138130971160E+03   -0.98909E-05   -0.10081E-04  6880   0.490E-02    0.605E-02
DAV:  11    -0.138130980435E+03   -0.92750E-05   -0.15218E-05  4624   0.242E-02
  10 F= -.15165771E+03 E0= -.15162036E+03  d E =-.346540E+00
       N       E                     dE             d eps       ncg     rms          rms(c)
DAV:   1    -0.107593068125E+03    0.30538E+02   -0.66885E+02  8688   0.230E+02    0.175E+01
DAV:   2    -0.144566599008E+03   -0.36974E+02   -0.35171E+02  8644   0.748E+01    0.412E+01
DAV:   3    -0.141182294653E+03    0.33843E+01   -0.32917E+01  9744   0.325E+01    0.155E+01
DAV:   4    -0.143484792271E+03   -0.23025E+01   -0.19105E+01  8468   0.403E+01    0.185E+01
DAV:   5    -0.138110476273E+03    0.53743E+01   -0.10073E+01  9048   0.259E+01    0.462E+00
DAV:   6    -0.138261419697E+03   -0.15094E+00   -0.21907E+00  8120   0.763E+00    0.392E+00
DAV:   7    -0.138273324038E+03   -0.11904E-01   -0.40086E-01  8088   0.352E+00    0.316E+00
DAV:   8    -0.138255318388E+03    0.18006E-01   -0.36586E-02  8332   0.106E+00    0.278E+00
DAV:   9    -0.138243266574E+03    0.12052E-01   -0.13027E-02  8312   0.671E-01    0.246E+00
DAV:  10    -0.138202394921E+03    0.40872E-01   -0.64186E-02  8752   0.219E+00    0.118E+00
DAV:  11    -0.138195839486E+03    0.65554E-02   -0.39788E-02  9196   0.103E+00    0.738E-01
DAV:  12    -0.138195133730E+03    0.70576E-03   -0.70026E-03  8628   0.435E-01    0.578E-01
DAV:  13    -0.138194612811E+03    0.52092E-03   -0.18589E-03  8048   0.269E-01    0.425E-01
DAV:  14    -0.138194432300E+03    0.18051E-03   -0.13480E-03  8276   0.301E-01    0.266E-01
DAV:  15    -0.138194098185E+03    0.33412E-03   -0.13074E-03  9020   0.281E-01    0.105E-01
DAV:  16    -0.138194107724E+03   -0.95391E-05   -0.47486E-04  9208   0.133E-01    0.703E-02
DAV:  17    -0.138194114282E+03   -0.65583E-05   -0.14991E-04  7044   0.673E-02    0.564E-02
DAV:  18    -0.138194118492E+03   -0.42097E-05   -0.45437E-05  6616   0.308E-02
  11 F= -.15172740E+03 E0= -.15169048E+03  d E =-.696874E-01
       N       E                     dE             d eps       ncg     rms          rms(c)
DAV:   1    -0.133676258387E+03    0.45179E+01   -0.11119E+02 11464   0.109E+02    0.947E+00
DAV:   2    -0.138277903054E+03   -0.46016E+01   -0.46143E+01  8308   0.174E+01    0.731E+00
DAV:   3    -0.138793229802E+03   -0.51533E+00   -0.54992E+00  8204   0.174E+01    0.647E+00
DAV:   4    -0.138760497511E+03    0.32732E-01   -0.50719E+00  8724   0.194E+01    0.542E+00
DAV:   5    -0.138262243491E+03    0.49825E+00   -0.85018E-01 10600   0.927E+00    0.248E+00
DAV:   6    -0.138267452607E+03   -0.52091E-02   -0.14674E-01  8212   0.172E+00    0.207E+00
DAV:   7    -0.138268687930E+03   -0.12353E-02   -0.28587E-02  8148   0.751E-01    0.186E+00
DAV:   8    -0.138268385084E+03    0.30285E-03   -0.34693E-03  8392   0.349E-01    0.163E+00
DAV:   9    -0.138266840326E+03    0.15448E-02   -0.23781E-03  8548   0.466E-01    0.999E-01
DAV:  10    -0.138265857519E+03    0.98281E-03   -0.51135E-03  8504   0.724E-01    0.336E-01
DAV:  11    -0.138265894048E+03   -0.36529E-04   -0.25764E-03  8212   0.232E-01    0.263E-01
DAV:  12    -0.138265894438E+03   -0.38987E-06   -0.38355E-04  7296   0.881E-02    0.248E-01
DAV:  13    -0.138265875804E+03    0.18634E-04   -0.20140E-04  7212   0.122E-01    0.225E-01
DAV:  14    -0.138265868928E+03    0.68751E-05   -0.18467E-04  8108   0.109E-01    0.125E-01
DAV:  15    -0.138265852339E+03    0.16590E-04   -0.11844E-04  7136   0.773E-02    0.811E-02
DAV:  16    -0.138265852470E+03   -0.13161E-06   -0.11966E-05  4728   0.171E-02
  12 F= -.15179336E+03 E0= -.15175623E+03  d E =-.135646E+00
       N       E                     dE             d eps       ncg     rms          rms(c)
DAV:   1    -0.133621847183E+03    0.46440E+01   -0.87633E+01 10076   0.116E+02    0.107E+01
DAV:   2    -0.138299030622E+03   -0.46772E+01   -0.47775E+01  7768   0.165E+01    0.577E+00
DAV:   3    -0.138682350848E+03   -0.38332E+00   -0.34085E+00 10012   0.145E+01    0.554E+00
DAV:   4    -0.138645831616E+03    0.36519E-01   -0.32702E+00  8952   0.158E+01    0.474E+00
DAV:   5    -0.138367907641E+03    0.27792E+00   -0.57621E-01 10552   0.711E+00    0.284E+00
DAV:   6    -0.138372323915E+03   -0.44163E-02   -0.10484E-01  8472   0.125E+00    0.247E+00
DAV:   7    -0.138372791335E+03   -0.46742E-03   -0.15189E-02  8124   0.504E-01    0.233E+00
DAV:   8    -0.138372422598E+03    0.36874E-03   -0.10556E-03  8656   0.185E-01    0.207E+00
DAV:   9    -0.138370907733E+03    0.15149E-02   -0.34962E-03  8208   0.600E-01    0.837E-01
DAV:  10    -0.138371100023E+03   -0.19229E-03   -0.51046E-03 11132   0.612E-01    0.323E-01
DAV:  11    -0.138371188880E+03   -0.88858E-04   -0.19776E-03  7556   0.188E-01    0.287E-01
DAV:  12    -0.138371169192E+03    0.19688E-04   -0.25450E-04  7168   0.958E-02    0.260E-01
DAV:  13    -0.138371139949E+03    0.29244E-04   -0.21974E-04  7016   0.131E-01    0.217E-01
DAV:  14    -0.138371210439E+03   -0.70490E-04   -0.28936E-04  8732   0.882E-02    0.129E-01
DAV:  15    -0.138371199474E+03    0.10965E-04   -0.89600E-05  6968   0.549E-02    0.102E-01
DAV:  16    -0.138371197088E+03    0.23854E-05   -0.99382E-06  4464   0.117E-02
  13 F= -.15190425E+03 E0= -.15186770E+03  d E =-.110891E+00
       N       E                     dE             d eps       ncg     rms          rms(c)
DAV:   1    -0.888448349220E+02    0.49526E+02   -0.77105E+02  9080   0.325E+02    0.535E+01
DAV:   2    -0.156083891665E+03   -0.67239E+02   -0.55196E+02  8700   0.121E+02    0.754E+01
DAV:   3    -0.153267449373E+03    0.28164E+01   -0.10955E+02 10056   0.747E+01    0.295E+01
DAV:   4    -0.188700666411E+03   -0.35433E+02   -0.45095E+01 10008   0.104E+02    0.697E+01
DAV:   5    -0.145199941489E+03    0.43501E+02   -0.58960E+01  9792   0.413E+01    0.275E+01
DAV:   6    -0.138806948872E+03    0.63930E+01   -0.96356E+00  9460   0.234E+01    0.165E+01
DAV:   7    -0.138850814268E+03   -0.43865E-01   -0.67825E+00  8608   0.136E+01    0.130E+01
DAV:   8    -0.138758030388E+03    0.92784E-01   -0.13549E+00  8092   0.593E+00    0.112E+01
DAV:   9    -0.138650610128E+03    0.10742E+00   -0.31148E-01  8380   0.525E+00    0.986E+00
DAV:  10    -0.138637422937E+03    0.13187E-01   -0.13052E-01  7904   0.135E+00    0.944E+00
DAV:  11    -0.138612097447E+03    0.25325E-01   -0.15847E-02  8724   0.169E+00    0.846E+00
DAV:  12    -0.138551518995E+03    0.60578E-01   -0.10636E-01  9316   0.354E+00    0.559E+00
DAV:  13    -0.138549608833E+03    0.19102E-02   -0.93760E-02  9944   0.177E+00    0.399E+00
DAV:  14    -0.138543338350E+03    0.62705E-02   -0.39017E-02  7656   0.903E-01    0.366E+00
DAV:  15    -0.138536263312E+03    0.70750E-02   -0.35104E-03 10048   0.564E-01    0.364E+00
DAV:  16    -0.138519497566E+03    0.16766E-01   -0.15347E-02  9060   0.145E+00    0.268E+00
DAV:  17    -0.138512634042E+03    0.68635E-02   -0.20080E-02 10032   0.937E-01    0.173E+00
DAV:  18    -0.138513643747E+03   -0.10097E-02   -0.67119E-03  7680   0.270E-01    0.176E+00
DAV:  19    -0.138511463135E+03    0.21806E-02   -0.15799E-03  9592   0.479E-01    0.154E+00
DAV:  20    -0.138511558464E+03   -0.95328E-04   -0.22999E-03  9792   0.415E-01    0.144E+00
DAV:  21    -0.138509310552E+03    0.22479E-02   -0.11434E-02  7860   0.932E-01    0.114E+00
DAV:  22    -0.138508985273E+03    0.32528E-03   -0.39287E-03  9604   0.340E-01    0.103E+00
DAV:  23    -0.138509124394E+03   -0.13912E-03   -0.72980E-04  7568   0.836E-02    0.107E+00
DAV:  24    -0.138508900680E+03    0.22371E-03   -0.16039E-04  7460   0.864E-02    0.995E-01
DAV:  25    -0.138508407205E+03    0.49347E-03   -0.13234E-04  7704   0.110E-01    0.871E-01
DAV:  26    -0.138507918159E+03    0.48905E-03   -0.33917E-04  7928   0.125E-01    0.716E-01
DAV:  27    -0.138507843046E+03    0.75113E-04   -0.20004E-04  6924   0.763E-02    0.660E-01
DAV:  28    -0.138507806035E+03    0.37011E-04   -0.21857E-05  5224   0.454E-02    0.630E-01
DAV:  29    -0.138507724773E+03    0.81262E-04   -0.23635E-05  5004   0.392E-02    0.586E-01
DAV:  30    -0.138507403689E+03    0.32108E-03   -0.23270E-04  8528   0.889E-02    0.428E-01
DAV:  31    -0.138507356557E+03    0.47132E-04   -0.97986E-05  6992   0.489E-02    0.368E-01
DAV:  32    -0.138507351789E+03    0.47683E-05   -0.14063E-05  4220   0.138E-02
  14 F= -.15205885E+03 E0= -.15202275E+03  d E =-.265489E+00
       N       E                     dE             d eps       ncg     rms          rms(c)
DAV:   1    -0.136877915936E+03    0.16294E+01   -0.33338E+01 10048   0.698E+01    0.509E+00
DAV:   2    -0.138513240272E+03   -0.16353E+01   -0.16739E+01  7556   0.892E+00    0.243E+00
DAV:   3    -0.138576155609E+03   -0.62915E-01   -0.77418E-01 10964   0.495E+00    0.211E+00
DAV:   4    -0.138586827353E+03   -0.10672E-01   -0.26369E-01  8224   0.462E+00    0.197E+00
DAV:   5    -0.138558535504E+03    0.28292E-01   -0.84902E-02  8396   0.272E+00    0.141E+00
DAV:   6    -0.138558210027E+03    0.32548E-03   -0.10629E-02  8700   0.616E-01    0.120E+00
DAV:   7    -0.138558501668E+03   -0.29164E-03   -0.32399E-03  8456   0.321E-01    0.916E-01
DAV:   8    -0.138557987718E+03    0.51395E-03   -0.31502E-03  7772   0.518E-01    0.306E-01
DAV:   9    -0.138558073609E+03   -0.85891E-04   -0.23342E-03 10640   0.383E-01    0.186E-01
DAV:  10    -0.138558068571E+03    0.50381E-05   -0.74487E-04  8624   0.170E-01    0.143E-01
DAV:  11    -0.138558071783E+03   -0.32119E-05   -0.11437E-04  7324   0.724E-02    0.983E-02
DAV:  12    -0.138558083029E+03   -0.11246E-04   -0.68404E-05  7392   0.753E-02    0.627E-02
DAV:  13    -0.138558092452E+03   -0.94227E-05   -0.22404E-05  5256   0.292E-02
  15 F= -.15211283E+03 E0= -.15207657E+03  d E =-.539819E-01
       N       E                     dE             d eps       ncg     rms          rms(c)
DAV:   1    -0.131734397767E+03    0.68237E+01   -0.12746E+02 10340   0.137E+02    0.143E+01
DAV:   2    -0.138514380786E+03   -0.67800E+01   -0.69049E+01  7820   0.207E+01    0.778E+00
DAV:   3    -0.139097602040E+03   -0.58322E+00   -0.54466E+00  9552   0.188E+01    0.729E+00
DAV:   4    -0.138999557896E+03    0.98044E-01   -0.48229E+00  8736   0.198E+01    0.588E+00
DAV:   5    -0.138587985712E+03    0.41157E+00   -0.90078E-01 11264   0.887E+00    0.376E+00
DAV:   6    -0.138594489193E+03   -0.65035E-02   -0.16880E-01  8300   0.162E+00    0.332E+00
DAV:   7    -0.138594901815E+03   -0.41262E-03   -0.25098E-02  8208   0.694E-01    0.309E+00
DAV:   8    -0.138594174745E+03    0.72707E-03   -0.23909E-03  8604   0.330E-01    0.271E+00
DAV:   9    -0.138591932351E+03    0.22424E-02   -0.44933E-03  8532   0.675E-01    0.132E+00
DAV:  10    -0.138591790705E+03    0.14165E-03   -0.79940E-03 10420   0.759E-01    0.448E-01
DAV:  11    -0.138591995255E+03   -0.20455E-03   -0.34208E-03  7668   0.228E-01    0.405E-01
DAV:  12    -0.138591959868E+03    0.35387E-04   -0.23460E-04  7884   0.736E-02    0.387E-01
DAV:  13    -0.138591843583E+03    0.11628E-03   -0.14908E-04  6672   0.114E-01    0.329E-01
DAV:  14    -0.138591908919E+03   -0.65337E-04   -0.51034E-04  9276   0.154E-01    0.188E-01
DAV:  15    -0.138591911723E+03   -0.28042E-05   -0.28076E-04  7580   0.867E-02    0.162E-01
DAV:  16    -0.138591909137E+03    0.25865E-05   -0.49410E-05  6788   0.241E-02
  16 F= -.15213638E+03 E0= -.15209952E+03  d E =-.775388E-01
       N       E                     dE             d eps       ncg     rms          rms(c)
DAV:   1    -0.138006783890E+03    0.58513E+00   -0.12550E+01 10384   0.495E+01    0.259E+00
DAV:   2    -0.138609980487E+03   -0.60320E+00   -0.61735E+00  7768   0.557E+00    0.111E+00
DAV:   3    -0.138629429651E+03   -0.19449E-01   -0.22233E-01 10800   0.223E+00    0.954E-01
DAV:   4    -0.138631260998E+03   -0.18313E-02   -0.47227E-02  8508   0.192E+00    0.932E-01
DAV:   5    -0.138626389506E+03    0.48715E-02   -0.17214E-02  7952   0.119E+00    0.728E-01
DAV:   6    -0.138626163085E+03    0.22642E-03   -0.22872E-03  8648   0.266E-01    0.614E-01
DAV:   7    -0.138626138898E+03    0.24187E-04   -0.68809E-04  8668   0.231E-01    0.422E-01
DAV:   8    -0.138626222398E+03   -0.83500E-04   -0.93154E-04  8764   0.284E-01    0.145E-01
DAV:   9    -0.138626349201E+03   -0.12680E-03   -0.65276E-04 10072   0.191E-01    0.931E-02
DAV:  10    -0.138626358565E+03   -0.93640E-05   -0.19035E-04  7464   0.685E-02    0.729E-02
DAV:  11    -0.138626355775E+03    0.27904E-05   -0.18268E-05  4520   0.366E-02
  17 F= -.15217475E+03 E0= -.15213780E+03  d E =-.383647E-01
       N       E                     dE             d eps       ncg     rms          rms(c)
DAV:   1    -0.132749860189E+03    0.58765E+01   -0.11051E+02 10568   0.147E+02    0.110E+01
DAV:   2    -0.138533247714E+03   -0.57834E+01   -0.59296E+01  7684   0.186E+01    0.518E+00
DAV:   3    -0.138762420280E+03   -0.22917E+00   -0.30613E+00 11068   0.116E+01    0.443E+00
DAV:   4    -0.138810025660E+03   -0.47605E-01   -0.13253E+00  8460   0.106E+01    0.415E+00
DAV:   5    -0.138668668956E+03    0.14136E+00   -0.38731E-01  8876   0.591E+00    0.293E+00
DAV:   6    -0.138671485653E+03   -0.28167E-02   -0.68718E-02  8440   0.993E-01    0.260E+00
DAV:   7    -0.138670459042E+03    0.10266E-02   -0.67384E-03  9212   0.479E-01    0.230E+00
DAV:   8    -0.138669343785E+03    0.11153E-02   -0.22983E-03  8148   0.477E-01    0.169E+00
DAV:   9    -0.138668469995E+03    0.87379E-03   -0.62065E-03  8644   0.757E-01    0.538E-01
DAV:  10    -0.138668839092E+03   -0.36910E-03   -0.42772E-03  9404   0.312E-01    0.306E-01
DAV:  11    -0.138668927407E+03   -0.88314E-04   -0.56697E-04  7624   0.115E-01    0.286E-01
DAV:  12    -0.138668876386E+03    0.51021E-04   -0.10313E-04  7388   0.907E-02    0.242E-01
DAV:  13    -0.138668760805E+03    0.11558E-03   -0.48495E-04  9100   0.167E-01    0.123E-01
DAV:  14    -0.138668792774E+03   -0.31969E-04   -0.21370E-04  7760   0.730E-02    0.972E-02
DAV:  15    -0.138668791235E+03    0.15387E-05   -0.62005E-05  6800   0.408E-02
  18 F= -.15222935E+03 E0= -.15219216E+03  d E =-.929688E-01
       N       E                     dE             d eps       ncg     rms          rms(c)
DAV:   1    -0.137950111152E+03    0.71868E+00   -0.14996E+01 10092   0.529E+01    0.294E+00
DAV:   2    -0.138674419033E+03   -0.72431E+00   -0.74143E+00  7708   0.621E+00    0.142E+00
DAV:   3    -0.138705458499E+03   -0.31039E-01   -0.32022E-01 11444   0.351E+00    0.132E+00
DAV:   4    -0.138706521989E+03   -0.10635E-02   -0.15670E-01  8696   0.348E+00    0.126E+00
DAV:   5    -0.138691772172E+03    0.14750E-01   -0.34897E-02  8152   0.173E+00    0.826E-01
DAV:   6    -0.138691987471E+03   -0.21530E-03   -0.55855E-03  8864   0.337E-01    0.685E-01
DAV:   7    -0.138692067916E+03   -0.80445E-04   -0.92726E-04  8412   0.219E-01    0.497E-01
DAV:   8    -0.138692142871E+03   -0.74955E-04   -0.82985E-04  8616   0.294E-01    0.188E-01
DAV:   9    -0.138692223132E+03   -0.80261E-04   -0.68015E-04 10808   0.171E-01    0.101E-01
DAV:  10    -0.138692244477E+03   -0.21345E-04   -0.23553E-04  7616   0.757E-02    0.772E-02
DAV:  11    -0.138692248737E+03   -0.42606E-05   -0.25407E-05  5876   0.423E-02
  19 F= -.15225354E+03 E0= -.15221594E+03  d E =-.241895E-01
       N       E                     dE             d eps       ncg     rms          rms(c)
DAV:   1    -0.138208461405E+03    0.48378E+00   -0.10031E+01 10108   0.434E+01    0.231E+00
DAV:   2    -0.138686768384E+03   -0.47831E+00   -0.48913E+00  7728   0.504E+00    0.115E+00
DAV:   3    -0.138708868437E+03   -0.22100E-01   -0.21187E-01 11280   0.299E+00    0.110E+00
DAV:   4    -0.138706612298E+03    0.22561E-02   -0.11198E-01  8548   0.293E+00    0.993E-01
DAV:   5    -0.138697465068E+03    0.91472E-02   -0.22380E-02  8332   0.138E+00    0.650E-01
DAV:   6    -0.138697629017E+03   -0.16395E-03   -0.38391E-03  8884   0.287E-01    0.529E-01
DAV:   7    -0.138697709540E+03   -0.80523E-04   -0.67612E-04  8340   0.190E-01    0.367E-01
DAV:   8    -0.138697796920E+03   -0.87380E-04   -0.53513E-04  8776   0.228E-01    0.149E-01
DAV:   9    -0.138697855209E+03   -0.58289E-04   -0.39845E-04 10680   0.129E-01    0.813E-02
DAV:  10    -0.138697869735E+03   -0.14525E-04   -0.12902E-04  7576   0.567E-02    0.612E-02
DAV:  11    -0.138697874319E+03   -0.45837E-05   -0.17670E-05  4892   0.368E-02
  20 F= -.15225986E+03 E0= -.15222194E+03  d E =-.305035E-01
       N       E                     dE             d eps       ncg     rms          rms(c)
DAV:   1    -0.138224805644E+03    0.47306E+00   -0.98463E+00 10052   0.409E+01    0.235E+00
DAV:   2    -0.138695699753E+03   -0.47089E+00   -0.48197E+00  7704   0.479E+00    0.113E+00
DAV:   3    -0.138715291899E+03   -0.19592E-01   -0.20186E-01 10976   0.276E+00    0.109E+00
DAV:   4    -0.138714112980E+03    0.11789E-02   -0.87025E-02  8340   0.260E+00    0.939E-01
DAV:   5    -0.138707137999E+03    0.69750E-02   -0.24544E-02  8324   0.143E+00    0.677E-01
DAV:   6    -0.138707056557E+03    0.81442E-04   -0.34012E-03  8980   0.320E-01    0.546E-01
DAV:   7    -0.138707106841E+03   -0.50284E-04   -0.82741E-04  8700   0.193E-01    0.390E-01
DAV:   8    -0.138707271865E+03   -0.16502E-03   -0.65697E-04  8060   0.225E-01    0.183E-01
DAV:   9    -0.138707365142E+03   -0.93277E-04   -0.60097E-04  9480   0.216E-01    0.832E-02
DAV:  10    -0.138707383734E+03   -0.18591E-04   -0.17590E-04  8932   0.632E-02    0.732E-02
DAV:  11    -0.138707388490E+03   -0.47564E-05   -0.27879E-05  5764   0.416E-02
  21 F= -.15227118E+03 E0= -.15223344E+03  d E =-.113206E-01
       N       E                     dE             d eps       ncg     rms          rms(c)
DAV:   1    -0.138495434246E+03    0.21195E+00   -0.44543E+00 10100   0.275E+01    0.148E+00
DAV:   2    -0.138703599477E+03   -0.20817E+00   -0.21305E+00  7668   0.317E+00    0.732E-01
DAV:   3    -0.138711639181E+03   -0.80397E-02   -0.82847E-02 10548   0.170E+00    0.671E-01
DAV:   4    -0.138711210038E+03    0.42914E-03   -0.33993E-02  8372   0.162E+00    0.591E-01
DAV:   5    -0.138708423390E+03    0.27866E-02   -0.98548E-03  8236   0.911E-01    0.427E-01
DAV:   6    -0.138708379230E+03    0.44160E-04   -0.13289E-03  9200   0.221E-01    0.333E-01
DAV:   7    -0.138708442234E+03   -0.63005E-04   -0.39372E-04  8396   0.142E-01    0.220E-01
DAV:   8    -0.138708566527E+03   -0.12429E-03   -0.29715E-04  8012   0.147E-01    0.104E-01
DAV:   9    -0.138708612245E+03   -0.45718E-04   -0.24368E-04  8792   0.135E-01    0.492E-02
DAV:  10    -0.138708619604E+03   -0.73589E-05   -0.68608E-05  7132   0.360E-02
  22 F= -.15227365E+03 E0= -.15223604E+03  d E =-.137891E-01
       N       E                     dE             d eps       ncg     rms          rms(c)
DAV:   1    -0.138351509888E+03    0.35710E+00   -0.75003E+00 10000   0.333E+01    0.209E+00
DAV:   2    -0.138707235501E+03   -0.35573E+00   -0.36451E+00  7656   0.390E+00    0.880E-01
DAV:   3    -0.138719287120E+03   -0.12052E-01   -0.13064E-01 11180   0.168E+00    0.829E-01
DAV:   4    -0.138719931350E+03   -0.64423E-03   -0.38800E-02  8408   0.169E+00    0.769E-01
DAV:   5    -0.138716569332E+03    0.33620E-02   -0.14072E-02  8188   0.107E+00    0.595E-01
DAV:   6    -0.138716257060E+03    0.31227E-03   -0.16770E-03  8976   0.282E-01    0.473E-01
DAV:   7    -0.138716350727E+03   -0.93667E-04   -0.10248E-03  8380   0.261E-01    0.224E-01
DAV:   8    -0.138716403481E+03   -0.52754E-04   -0.91161E-04  8648   0.195E-01    0.830E-02
DAV:   9    -0.138716444938E+03   -0.41458E-04   -0.22633E-04  9556   0.101E-01    0.666E-02
DAV:  10    -0.138716450892E+03   -0.59532E-05   -0.58749E-05  6680   0.315E-02
  23 F= -.15228213E+03 E0= -.15224454E+03  d E =-.848362E-02
       N       E                     dE             d eps       ncg     rms          rms(c)
DAV:   1    -0.138447434000E+03    0.26901E+00   -0.56371E+00 10000   0.289E+01    0.177E+00
DAV:   2    -0.138712067214E+03   -0.26463E+00   -0.27120E+00  7656   0.332E+00    0.744E-01
DAV:   3    -0.138720056274E+03   -0.79891E-02   -0.91023E-02 10336   0.119E+00    0.644E-01
DAV:   4    -0.138721400527E+03   -0.13443E-02   -0.21939E-02  8364   0.126E+00    0.640E-01
DAV:   5    -0.138719063569E+03    0.23370E-02   -0.10476E-02  8216   0.925E-01    0.494E-01
DAV:   6    -0.138718742970E+03    0.32060E-03   -0.11419E-03  9800   0.266E-01    0.382E-01
DAV:   7    -0.138718861967E+03   -0.11900E-03   -0.73938E-04  8344   0.237E-01    0.158E-01
DAV:   8    -0.138718902768E+03   -0.40801E-04   -0.66748E-04  8156   0.162E-01    0.644E-02
DAV:   9    -0.138718928175E+03   -0.25407E-04   -0.14035E-04  8620   0.795E-02    0.555E-02
DAV:  10    -0.138718932678E+03   -0.45034E-05   -0.39686E-05  6520   0.278E-02
  24 F= -.15228523E+03 E0= -.15224766E+03  d E =-.115832E-01
       N       E                     dE             d eps       ncg     rms          rms(c)
DAV:   1    -0.138698785799E+03    0.20142E-01   -0.43727E-01 10280   0.806E+00    0.423E-01
DAV:   2    -0.138718446273E+03   -0.19660E-01   -0.20170E-01  7616   0.914E-01    0.205E-01
DAV:   3    -0.138718950548E+03   -0.50428E-03   -0.59305E-03  9584   0.252E-01    0.140E-01
DAV:   4    -0.138718960660E+03   -0.10112E-04   -0.65905E-04  8036   0.197E-01    0.135E-01
DAV:   5    -0.138718916967E+03    0.43694E-04   -0.41901E-04  6992   0.192E-01    0.120E-01
DAV:   6    -0.138718886085E+03    0.30882E-04   -0.10177E-04  4736   0.918E-02    0.868E-02
DAV:   7    -0.138718935680E+03   -0.49596E-04   -0.66865E-05  6640   0.734E-02    0.227E-02
DAV:   8    -0.138718943397E+03   -0.77170E-05   -0.42627E-05  6304   0.383E-02
  25 F= -.15228542E+03 E0= -.15224786E+03  d E =-.117737E-01
       N       E                     dE             d eps       ncg     rms          rms(c)
DAV:   1    -0.138190841553E+03    0.52809E+00   -0.10505E+01 10224   0.395E+01    0.268E+00
DAV:   2    -0.138722844141E+03   -0.53200E+00   -0.54405E+00  7592   0.470E+00    0.130E+00
DAV:   3    -0.138744188919E+03   -0.21345E-01   -0.19318E-01 11348   0.304E+00    0.134E+00
DAV:   4    -0.138736896566E+03    0.72924E-02   -0.12727E-01  8560   0.315E+00    0.105E+00
DAV:   5    -0.138727801020E+03    0.90955E-02   -0.24921E-02  8712   0.146E+00    0.730E-01
DAV:   6    -0.138727877492E+03   -0.76472E-04   -0.38315E-03  8588   0.308E-01    0.609E-01
DAV:   7    -0.138727909627E+03   -0.32135E-04   -0.87412E-04  7832   0.180E-01    0.437E-01
DAV:   8    -0.138727929597E+03   -0.19970E-04   -0.62441E-04  7956   0.233E-01    0.178E-01
DAV:   9    -0.138727985539E+03   -0.55943E-04   -0.54652E-04 10088   0.157E-01    0.899E-02
DAV:  10    -0.138728013483E+03   -0.27943E-04   -0.13913E-04  7328   0.561E-02    0.721E-02
DAV:  11    -0.138728019782E+03   -0.62991E-05   -0.19162E-05  4992   0.363E-02
  26 F= -.15229199E+03 E0= -.15225410E+03  d E =-.657370E-02
       N       E                     dE             d eps       ncg     rms          rms(c)
DAV:   1    -0.138425545897E+03    0.30247E+00   -0.60807E+00 10164   0.299E+01    0.192E+00
DAV:   2    -0.138728155735E+03   -0.30261E+00   -0.30943E+00  7684   0.348E+00    0.922E-01
DAV:   3    -0.138739311927E+03   -0.11156E-01   -0.99189E-02 11436   0.211E+00    0.949E-01
DAV:   4    -0.138735327393E+03    0.39845E-02   -0.63053E-02  8444   0.222E+00    0.757E-01
DAV:   5    -0.138730931631E+03    0.43958E-02   -0.12076E-02  8648   0.102E+00    0.524E-01
DAV:   6    -0.138730951868E+03   -0.20238E-04   -0.18454E-03  8556   0.239E-01    0.431E-01
DAV:   7    -0.138731004117E+03   -0.52248E-04   -0.51987E-04  7732   0.152E-01    0.273E-01
DAV:   8    -0.138731057665E+03   -0.53548E-04   -0.43758E-04  8572   0.172E-01    0.101E-01
DAV:   9    -0.138731107165E+03   -0.49500E-04   -0.23464E-04  9748   0.102E-01    0.604E-02
DAV:  10    -0.138731118373E+03   -0.11208E-04   -0.59259E-05  6636   0.390E-02    0.493E-02
DAV:  11    -0.138731122670E+03   -0.42964E-05   -0.96454E-06  4452   0.250E-02
  27 F= -.15229329E+03 E0= -.15225513E+03  d E =-.787144E-02
       N       E                     dE             d eps       ncg     rms          rms(c)
DAV:   1    -0.138388521858E+03    0.34260E+00   -0.70262E+00 10232   0.315E+01    0.208E+00
DAV:   2    -0.138735342349E+03   -0.34682E+00   -0.35482E+00  7648   0.373E+00    0.106E+00
DAV:   3    -0.138743113501E+03   -0.77712E-02   -0.93504E-02 10084   0.205E+00    0.967E-01
DAV:   4    -0.138742176527E+03    0.93697E-03   -0.51840E-02  8304   0.203E+00    0.793E-01
DAV:   5    -0.138737575200E+03    0.46013E-02   -0.17373E-02  8392   0.120E+00    0.590E-01
DAV:   6    -0.138737387692E+03    0.18751E-03   -0.19833E-03  9528   0.297E-01    0.475E-01
DAV:   7    -0.138737469499E+03   -0.81807E-04   -0.68953E-04  8176   0.169E-01    0.308E-01
DAV:   8    -0.138737596129E+03   -0.12663E-03   -0.45419E-04  8556   0.181E-01    0.149E-01
DAV:   9    -0.138737660175E+03   -0.64046E-04   -0.30954E-04  9320   0.144E-01    0.694E-02
DAV:  10    -0.138737684389E+03   -0.24214E-04   -0.93929E-05  7044   0.406E-02    0.575E-02
DAV:  11    -0.138737691413E+03   -0.70234E-05   -0.11974E-05  4528   0.272E-02
  28 F= -.15229788E+03 E0= -.15225946E+03  d E =-.458437E-02
       N       E                     dE             d eps       ncg     rms          rms(c)
DAV:   1    -0.137569912384E+03    0.11678E+01   -0.23737E+01 10580   0.572E+01    0.449E+00
DAV:   2    -0.138725747939E+03   -0.11558E+01   -0.11805E+01  7660   0.721E+00    0.236E+00
DAV:   3    -0.138786359709E+03   -0.60612E-01   -0.60484E-01  9532   0.536E+00    0.232E+00
DAV:   4    -0.138774168372E+03    0.12191E-01   -0.37871E-01  8588   0.541E+00    0.177E+00
DAV:   5    -0.138745133729E+03    0.29035E-01   -0.94821E-02  9732   0.284E+00    0.124E+00
DAV:   6    -0.138744962716E+03    0.17101E-03   -0.11522E-02  8832   0.550E-01    0.104E+00
DAV:   7    -0.138744826945E+03    0.13577E-03   -0.25281E-03  8744   0.257E-01    0.853E-01
DAV:   8    -0.138744898770E+03   -0.71825E-04   -0.11151E-03  7960   0.278E-01    0.571E-01
DAV:   9    -0.138744960329E+03   -0.61559E-04   -0.14153E-03  9084   0.364E-01    0.255E-01
DAV:  10    -0.138745071884E+03   -0.11156E-03   -0.64824E-04 10768   0.155E-01    0.143E-01
DAV:  11    -0.138745088043E+03   -0.16159E-04   -0.17703E-04  7528   0.778E-02    0.113E-01
DAV:  12    -0.138745091789E+03   -0.37463E-05   -0.26572E-05  5720   0.476E-02
  29 F= -.15230184E+03 E0= -.15226292E+03  d E =-.854384E-02
       N       E                     dE             d eps       ncg     rms          rms(c)
DAV:   1    -0.138645456698E+03    0.99631E-01   -0.20796E+00 10080   0.170E+01    0.103E+00
DAV:   2    -0.138743811865E+03   -0.98355E-01   -0.10078E+00  7648   0.196E+00    0.482E-01
DAV:   3    -0.138746402618E+03   -0.25908E-02   -0.32808E-02  9528   0.675E-01    0.373E-01
DAV:   4    -0.138746190792E+03    0.21183E-03   -0.31378E-03  8452   0.381E-01    0.328E-01
DAV:   5    -0.138746054188E+03    0.13660E-03   -0.27234E-04  7340   0.134E-01    0.264E-01
DAV:   6    -0.138746179744E+03   -0.12556E-03   -0.50526E-04  7380   0.217E-01    0.222E-01
DAV:   7    -0.138746156746E+03    0.22998E-04   -0.66244E-04  9036   0.239E-01    0.786E-02
DAV:   8    -0.138746194253E+03   -0.37507E-04   -0.23748E-04  9480   0.974E-02    0.395E-02
DAV:   9    -0.138746201042E+03   -0.67888E-05   -0.55707E-05  6720   0.353E-02
  30 F= -.15230198E+03 E0= -.15226290E+03  d E =-.868596E-02
       N       E                     dE             d eps       ncg     rms          rms(c)
DAV:   1    -0.138348257745E+03    0.39794E+00   -0.79862E+00 10320   0.327E+01    0.232E+00
DAV:   2    -0.138745139521E+03   -0.39688E+00   -0.40629E+00  7492   0.384E+00    0.109E+00
DAV:   3    -0.138762346312E+03   -0.17207E-01   -0.17348E-01 10892   0.236E+00    0.110E+00
DAV:   4    -0.138759609203E+03    0.27371E-02   -0.76396E-02  8420   0.238E+00    0.879E-01
DAV:   5    -0.138754065672E+03    0.55435E-02   -0.20348E-02  8284   0.130E+00    0.657E-01
DAV:   6    -0.138753908672E+03    0.15700E-03   -0.24416E-03  9104   0.299E-01    0.542E-01
DAV:   7    -0.138753941324E+03   -0.32652E-04   -0.79283E-04  8236   0.179E-01    0.364E-01
DAV:   8    -0.138754077012E+03   -0.13569E-03   -0.49305E-04  8540   0.190E-01    0.179E-01
DAV:   9    -0.138754119802E+03   -0.42790E-04   -0.46452E-04  9036   0.173E-01    0.805E-02
DAV:  10    -0.138754142287E+03   -0.22486E-04   -0.11336E-04  7576   0.462E-02    0.677E-02
DAV:  11    -0.138754146623E+03   -0.43359E-05   -0.15195E-05  4408   0.292E-02
  31 F= -.15230695E+03 E0= -.15226749E+03  d E =-.497055E-02
       N       E                     dE             d eps       ncg     rms          rms(c)
DAV:   1    -0.137603000238E+03    0.11511E+01   -0.23109E+01 10796   0.550E+01    0.461E+00
DAV:   2    -0.138758342856E+03   -0.11553E+01   -0.11807E+01  7824   0.676E+00    0.227E+00
DAV:   3    -0.138798137285E+03   -0.39794E-01   -0.39210E-01 10028   0.468E+00    0.226E+00
DAV:   4    -0.138784451927E+03    0.13685E-01   -0.29853E-01  8672   0.478E+00    0.170E+00
DAV:   5    -0.138762859313E+03    0.21593E-01   -0.77215E-02  9388   0.253E+00    0.126E+00
DAV:   6    -0.138762431569E+03    0.42774E-03   -0.96495E-03  8800   0.540E-01    0.106E+00
DAV:   7    -0.138762222224E+03    0.20935E-03   -0.25090E-03  8820   0.282E-01    0.831E-01
DAV:   8    -0.138762171934E+03    0.50290E-04   -0.12963E-03  7952   0.298E-01    0.503E-01
DAV:   9    -0.138762166406E+03    0.55280E-05   -0.15456E-03  9416   0.345E-01    0.223E-01
DAV:  10    -0.138762262020E+03   -0.95614E-04   -0.45545E-04 10484   0.111E-01    0.150E-01
DAV:  11    -0.138762279474E+03   -0.17454E-04   -0.88470E-05  6956   0.640E-02    0.117E-01
DAV:  12    -0.138762293212E+03   -0.13738E-04   -0.38362E-05  6444   0.627E-02    0.761E-02
DAV:  13    -0.138762313747E+03   -0.20535E-04   -0.24635E-05  4852   0.349E-02    0.516E-02
DAV:  14    -0.138762316885E+03   -0.31383E-05   -0.25270E-05  5804   0.280E-02
  32 F= -.15231040E+03 E0= -.15227029E+03  d E =-.842308E-02
       N       E                     dE             d eps       ncg     rms          rms(c)
DAV:   1    -0.138522797284E+03    0.23952E+00   -0.48767E+00 10280   0.257E+01    0.173E+00
DAV:   2    -0.138767930346E+03   -0.24513E+00   -0.25087E+00  7676   0.297E+00    0.838E-01
DAV:   3    -0.138774190488E+03   -0.62601E-02   -0.62135E-02 10864   0.165E+00    0.836E-01
DAV:   4    -0.138772047939E+03    0.21425E-02   -0.40513E-02  8320   0.176E+00    0.667E-01
DAV:   5    -0.138768978561E+03    0.30694E-02   -0.94969E-03  8468   0.888E-01    0.489E-01
DAV:   6    -0.138768973750E+03    0.48112E-05   -0.12264E-03  8820   0.226E-01    0.403E-01
DAV:   7    -0.138769058842E+03   -0.85093E-04   -0.45280E-04  7628   0.139E-01    0.252E-01
DAV:   8    -0.138769111025E+03   -0.52183E-04   -0.32294E-04  8672   0.147E-01    0.115E-01
DAV:   9    -0.138769159712E+03   -0.48686E-04   -0.20522E-04  8952   0.126E-01    0.540E-02
DAV:  10    -0.138769176115E+03   -0.16403E-04   -0.62330E-05  6572   0.335E-02    0.446E-02
DAV:  11    -0.138769181191E+03   -0.50756E-05   -0.93192E-06  4264   0.220E-02
  33 F= -.15231439E+03 E0= -.15227399E+03  d E =-.398724E-02
       N       E                     dE             d eps       ncg     rms          rms(c)
DAV:   1    -0.137272543288E+03    0.14966E+01   -0.30482E+01 11028   0.633E+01    0.564E+00
DAV:   2    -0.138751674674E+03   -0.14791E+01   -0.15098E+01  7752   0.796E+00    0.284E+00
DAV:   3    -0.138872859950E+03   -0.12119E+00   -0.98982E-01  9428   0.693E+00    0.316E+00
DAV:   4    -0.138824608289E+03    0.48252E-01   -0.71368E-01  8704   0.724E+00    0.220E+00
DAV:   5    -0.138780748399E+03    0.43860E-01   -0.12932E-01 10536   0.331E+00    0.154E+00
DAV:   6    -0.138780988822E+03   -0.24042E-03   -0.17108E-02  8592   0.647E-01    0.132E+00
DAV:   7    -0.138781108080E+03   -0.11926E-03   -0.34347E-03  8552   0.272E-01    0.114E+00
DAV:   8    -0.138780983701E+03    0.12438E-03   -0.11731E-03  7796   0.290E-01    0.789E-01
DAV:   9    -0.138780880740E+03    0.10296E-03   -0.18512E-03  9528   0.414E-01    0.354E-01
DAV:  10    -0.138780998888E+03   -0.11815E-03   -0.92313E-04 11044   0.207E-01    0.179E-01
DAV:  11    -0.138781023705E+03   -0.24817E-04   -0.30323E-04  7656   0.928E-02    0.149E-01
DAV:  12    -0.138781025907E+03   -0.22022E-05   -0.39494E-05  6720   0.602E-02
  34 F= -.15231939E+03 E0= -.15227833E+03  d E =-.898573E-02
       N       E                     dE             d eps       ncg     rms          rms(c)
DAV:   1    -0.138585705294E+03    0.19532E+00   -0.39457E+00 10256   0.232E+01    0.152E+00
DAV:   2    -0.138782508483E+03   -0.19680E+00   -0.20143E+00  7740   0.262E+00    0.714E-01
DAV:   3    -0.138785531809E+03   -0.30233E-02   -0.38328E-02 10384   0.108E+00    0.636E-01
DAV:   4    -0.138786000709E+03   -0.46890E-03   -0.21692E-02  8444   0.129E+00    0.602E-01
DAV:   5    -0.138783501649E+03    0.24991E-02   -0.78220E-03  8200   0.796E-01    0.430E-01
DAV:   6    -0.138783450478E+03    0.51171E-04   -0.77788E-04  9380   0.215E-01    0.348E-01
DAV:   7    -0.138783545706E+03   -0.95227E-04   -0.42481E-04  7832   0.151E-01    0.180E-01
DAV:   8    -0.138783600814E+03   -0.55109E-04   -0.30672E-04  9156   0.119E-01    0.751E-02
DAV:   9    -0.138783634377E+03   -0.33562E-04   -0.12108E-04  7788   0.948E-02    0.420E-02
DAV:  10    -0.138783643243E+03   -0.88669E-05   -0.36164E-05  6236   0.293E-02
  35 F= -.15231962E+03 E0= -.15227836E+03  d E =-.922112E-02
       N       E                     dE             d eps       ncg     rms          rms(c)
DAV:   1    -0.138202417254E+03    0.58122E+00   -0.11983E+01 10344   0.382E+01    0.297E+00
DAV:   2    -0.138791644383E+03   -0.58923E+00   -0.60177E+00  7596   0.459E+00    0.153E+00
DAV:   3    -0.138816213097E+03   -0.24569E-01   -0.20550E-01  9804   0.344E+00    0.164E+00
DAV:   4    -0.138804631817E+03    0.11581E-01   -0.17798E-01  8440   0.368E+00    0.119E+00
DAV:   5    -0.138792547738E+03    0.12084E-01   -0.37561E-02  9508   0.178E+00    0.825E-01
DAV:   6    -0.138792509157E+03    0.38581E-04   -0.44693E-03  9232   0.386E-01    0.671E-01
DAV:   7    -0.138792611926E+03   -0.10277E-03   -0.13288E-03  8156   0.211E-01    0.493E-01
DAV:   8    -0.138792747387E+03   -0.13546E-03   -0.65221E-04  7924   0.219E-01    0.269E-01
DAV:   9    -0.138792795581E+03   -0.48194E-04   -0.79844E-04  9220   0.250E-01    0.120E-01
DAV:  10    -0.138792834597E+03   -0.39015E-04   -0.21130E-04  9152   0.670E-02    0.929E-02
DAV:  11    -0.138792840166E+03   -0.55691E-05   -0.30628E-05  6296   0.414E-02
  36 F= -.15232405E+03 E0= -.15228238E+03  d E =-.442937E-02
       N       E                     dE             d eps       ncg     rms          rms(c)
DAV:   1    -0.133753336521E+03    0.50395E+01   -0.11610E+02 11316   0.111E+02    0.142E+01
DAV:   2    -0.138787457387E+03   -0.50341E+01   -0.50880E+01  7900   0.166E+01    0.754E+00
DAV:   3    -0.139636864532E+03   -0.84941E+00   -0.58449E+00  8452   0.190E+01    0.888E+00
DAV:   4    -0.139173487061E+03    0.46338E+00   -0.57621E+00  8772   0.205E+01    0.575E+00
DAV:   5    -0.138811801992E+03    0.36169E+00   -0.84457E-01 10444   0.878E+00    0.380E+00
DAV:   6    -0.138813910183E+03   -0.21082E-02   -0.15466E-01  8172   0.185E+00    0.330E+00
DAV:   7    -0.138814822635E+03   -0.91245E-03   -0.28303E-02  8136   0.750E-01    0.300E+00
DAV:   8    -0.138814261185E+03    0.56145E-03   -0.47105E-03  8336   0.526E-01    0.261E+00
DAV:   9    -0.138813268229E+03    0.99296E-03   -0.41852E-03  9600   0.556E-01    0.167E+00
DAV:  10    -0.138813834478E+03   -0.56625E-03   -0.64358E-03  9956   0.740E-01    0.501E-01
DAV:  11    -0.138813832840E+03    0.16384E-05   -0.32253E-03  8172   0.349E-01    0.416E-01
DAV:  12    -0.138813738473E+03    0.94367E-04   -0.34479E-04  7920   0.118E-01    0.387E-01
DAV:  13    -0.138813691373E+03    0.47100E-04   -0.14195E-04  7224   0.112E-01    0.312E-01
DAV:  14    -0.138813652647E+03    0.38726E-04   -0.36484E-04  8484   0.117E-01    0.176E-01
DAV:  15    -0.138813663339E+03   -0.10691E-04   -0.20592E-04  7888   0.706E-02    0.135E-01
DAV:  16    -0.138813652660E+03    0.10679E-04   -0.65293E-05  6784   0.312E-02    0.108E-01
DAV:  17    -0.138813652432E+03    0.22797E-06   -0.10999E-05  4612   0.169E-02
  37 F= -.15233120E+03 E0= -.15228868E+03  d E =-.115830E-01
       N       E                     dE             d eps       ncg     rms          rms(c)
DAV:   1    -0.116987404047E+03    0.21826E+02   -0.51721E+02  7960   0.202E+02    0.247E+01
DAV:   2    -0.163815835465E+03   -0.46828E+02   -0.36524E+02  8212   0.994E+01    0.103E+02
DAV:   3    -0.154271171497E+03    0.95447E+01   -0.65045E+01  9980   0.307E+01    0.440E+01
DAV:   4    -0.146897677068E+03    0.73735E+01   -0.15881E+01  8368   0.408E+01    0.257E+01
DAV:   5    -0.141087000095E+03    0.58107E+01   -0.14076E+01  9296   0.303E+01    0.131E+01
DAV:   6    -0.140064077124E+03    0.10229E+01   -0.53064E+00  9516   0.140E+01    0.103E+01
DAV:   7    -0.139340403978E+03    0.72367E+00   -0.18791E+00  9056   0.927E+00    0.644E+00
DAV:   8    -0.139061433960E+03    0.27897E+00   -0.59278E-01  9136   0.423E+00    0.458E+00
DAV:   9    -0.139057214371E+03    0.42196E-02   -0.25650E-01  7768   0.177E+00    0.432E+00
DAV:  10    -0.139008452735E+03    0.48762E-01   -0.22301E-02  8704   0.132E+00    0.388E+00
DAV:  11    -0.138904165172E+03    0.10429E+00   -0.43855E-02  9872   0.253E+00    0.268E+00
DAV:  12    -0.138848433092E+03    0.55732E-01   -0.90147E-02 10320   0.211E+00    0.143E+00
DAV:  13    -0.138845120547E+03    0.33125E-02   -0.39555E-02  9208   0.667E-01    0.109E+00
DAV:  14    -0.138843057923E+03    0.20626E-02   -0.72835E-03  7976   0.626E-01    0.991E-01
DAV:  15    -0.138833636823E+03    0.94211E-02   -0.93355E-03 10264   0.123E+00    0.388E-01
DAV:  16    -0.138833307894E+03    0.32893E-03   -0.11004E-02 10312   0.609E-01    0.173E-01
DAV:  17    -0.138833453576E+03   -0.14568E-03   -0.25019E-03  7436   0.226E-01    0.831E-02
DAV:  18    -0.138833473478E+03   -0.19902E-04   -0.14831E-04  9680   0.108E-01    0.790E-02
DAV:  19    -0.138833457365E+03    0.16113E-04   -0.16314E-04  6916   0.106E-01    0.473E-02
DAV:  20    -0.138833471108E+03   -0.13743E-04   -0.49525E-05  6424   0.409E-02    0.337E-02
DAV:  21    -0.138833478112E+03   -0.70043E-05   -0.11632E-05  4420   0.197E-02
  38 F= -.15232500E+03 E0= -.15228214E+03  d E =-.538322E-02
       N       E                     dE             d eps       ncg     rms          rms(c)
DAV:   1    -0.129518213590E+03    0.93153E+01   -0.21029E+02  9836   0.141E+02    0.947E+00
DAV:   2    -0.139615870632E+03   -0.10098E+02   -0.10447E+02  8288   0.327E+01    0.156E+01
DAV:   3    -0.139106757978E+03    0.50911E+00   -0.69035E+00  8544   0.157E+01    0.507E+00
DAV:   4    -0.140077943863E+03   -0.97119E+00   -0.59883E+00  9564   0.218E+01    0.896E+00
DAV:   5    -0.138799705139E+03    0.12782E+01   -0.25473E+00  8352   0.147E+01    0.221E+00
DAV:   6    -0.138831296722E+03   -0.31592E-01   -0.32950E-01  8020   0.234E+00    0.211E+00
DAV:   7    -0.138833778263E+03   -0.24815E-02   -0.50328E-02  8056   0.902E-01    0.185E+00
DAV:   8    -0.138830235335E+03    0.35429E-02   -0.91758E-03  7992   0.698E-01    0.151E+00
DAV:   9    -0.138826082585E+03    0.41527E-02   -0.18010E-02  8288   0.751E-01    0.955E-01
DAV:  10    -0.138822944909E+03    0.31377E-02   -0.13553E-02  8652   0.912E-01    0.387E-01
DAV:  11    -0.138822847490E+03    0.97419E-04   -0.38748E-03  9768   0.384E-01    0.216E-01
DAV:  12    -0.138822884148E+03   -0.36658E-04   -0.90253E-04  7400   0.118E-01    0.200E-01
DAV:  13    -0.138822828115E+03    0.56033E-04   -0.35576E-04  6916   0.157E-01    0.111E-01
DAV:  14    -0.138822893923E+03   -0.65808E-04   -0.26480E-04  8140   0.125E-01    0.548E-02
DAV:  15    -0.138822881934E+03    0.11988E-04   -0.14433E-04  6912   0.114E-01    0.382E-02
DAV:  16    -0.138822885712E+03   -0.37776E-05   -0.17505E-05  4888   0.230E-02
  39 F= -.15233163E+03 E0= -.15228876E+03  d E =-.120088E-01
       N       E                     dE             d eps       ncg     rms          rms(c)
DAV:   1    -0.138639107455E+03    0.18377E+00   -0.38386E+00 10188   0.208E+01    0.154E+00
DAV:   2    -0.138823613539E+03   -0.18451E+00   -0.18882E+00  7604   0.240E+00    0.670E-01
DAV:   3    -0.138832122098E+03   -0.85086E-02   -0.77575E-02 11540   0.145E+00    0.752E-01
DAV:   4    -0.138829646965E+03    0.24751E-02   -0.32234E-02  8132   0.150E+00    0.577E-01
DAV:   5    -0.138827804674E+03    0.18423E-02   -0.67008E-03  8400   0.730E-01    0.440E-01
DAV:   6    -0.138827780538E+03    0.24136E-04   -0.81867E-04  8584   0.188E-01    0.366E-01
DAV:   7    -0.138827880341E+03   -0.99804E-04   -0.40371E-04  7148   0.151E-01    0.188E-01
DAV:   8    -0.138827967996E+03   -0.87655E-04   -0.37033E-04  8048   0.127E-01    0.692E-02
DAV:   9    -0.138827986806E+03   -0.18810E-04   -0.16773E-04  8260   0.102E-01    0.479E-02
DAV:  10    -0.138827991721E+03   -0.49155E-05   -0.23869E-05  5592   0.230E-02
  40 F= -.15233451E+03 E0= -.15229159E+03  d E =-.287821E-02
       N       E                     dE             d eps       ncg     rms          rms(c)
DAV:   1    -0.138091665303E+03    0.73632E+00   -0.15106E+01 10436   0.412E+01    0.360E+00
DAV:   2    -0.138835001526E+03   -0.74334E+00   -0.75993E+00  7696   0.495E+00    0.167E+00
DAV:   3    -0.138865642519E+03   -0.30641E-01   -0.24294E-01 10716   0.357E+00    0.188E+00
DAV:   4    -0.138848955883E+03    0.16687E-01   -0.19251E-01  8492   0.381E+00    0.133E+00
DAV:   5    -0.138837463461E+03    0.11492E-01   -0.39226E-02  9028   0.178E+00    0.990E-01
DAV:   6    -0.138837409705E+03    0.53755E-04   -0.49524E-03  8556   0.415E-01    0.830E-01
DAV:   7    -0.138837451136E+03   -0.41431E-04   -0.18451E-03  8580   0.260E-01    0.570E-01
DAV:   8    -0.138837569741E+03   -0.11860E-03   -0.10587E-03  8288   0.262E-01    0.253E-01
DAV:   9    -0.138837620411E+03   -0.50670E-04   -0.97159E-04  9196   0.255E-01    0.133E-01
DAV:  10    -0.138837662318E+03   -0.41907E-04   -0.18183E-04  7776   0.623E-02    0.109E-01
DAV:  11    -0.138837673453E+03   -0.11134E-04   -0.31871E-05  6368   0.433E-02    0.780E-02
DAV:  12    -0.138837689048E+03   -0.15595E-04   -0.38243E-05  6732   0.580E-02    0.406E-02
DAV:  13    -0.138837696025E+03   -0.69777E-05   -0.12757E-05  4512   0.229E-02
  41 F= -.15233982E+03 E0= -.15229689E+03  d E =-.818663E-02
       N       E                     dE             d eps       ncg     rms          rms(c)
DAV:   1    -0.135936840683E+03    0.29008E+01   -0.62732E+01 11128   0.803E+01    0.101E+01
DAV:   2    -0.138798676010E+03   -0.28618E+01   -0.29186E+01  7692   0.110E+01    0.460E+00
DAV:   3    -0.139109623565E+03   -0.31095E+00   -0.22760E+00  9400   0.108E+01    0.550E+00
DAV:   4    -0.138957622300E+03    0.15200E+00   -0.18687E+00  8616   0.116E+01    0.363E+00
DAV:   5    -0.138855206518E+03    0.10242E+00   -0.29466E-01 10512   0.506E+00    0.271E+00
DAV:   6    -0.138856225962E+03   -0.10194E-02   -0.42003E-02  8264   0.954E-01    0.240E+00
DAV:   7    -0.138856249527E+03   -0.23565E-04   -0.78540E-03  8596   0.421E-01    0.212E+00
DAV:   8    -0.138856037027E+03    0.21250E-03   -0.28729E-03  7968   0.426E-01    0.154E+00
DAV:   9    -0.138855966735E+03    0.70292E-04   -0.36332E-03  9408   0.543E-01    0.780E-01
DAV:  10    -0.138856248722E+03   -0.28199E-03   -0.20040E-03 10916   0.352E-01    0.329E-01
DAV:  11    -0.138856264875E+03   -0.16153E-04   -0.82678E-04  7936   0.165E-01    0.277E-01
DAV:  12    -0.138856250254E+03    0.14621E-04   -0.12741E-04  7368   0.106E-01    0.229E-01
DAV:  13    -0.138856262944E+03   -0.12689E-04   -0.70924E-05  6840   0.803E-02    0.158E-01
DAV:  14    -0.138856264043E+03   -0.10987E-05   -0.12882E-04  7432   0.584E-02    0.890E-02
DAV:  15    -0.138856258471E+03    0.55715E-05   -0.40596E-05  6600   0.366E-02
  42 F= -.15234956E+03 E0= -.15230680E+03  d E =-.179294E-01
       N       E                     dE             d eps       ncg     rms          rms(c)
DAV:   1    -0.125782196552E+03    0.13074E+02   -0.26294E+02  8788   0.151E+02    0.129E+01
DAV:   2    -0.140972561326E+03   -0.15190E+02   -0.15254E+02  8248   0.393E+01    0.226E+01
DAV:   3    -0.140023528624E+03    0.94903E+00   -0.14497E+01  8892   0.248E+01    0.928E+00
DAV:   4    -0.141083639547E+03   -0.10601E+01   -0.13569E+01  9112   0.328E+01    0.120E+01
DAV:   5    -0.138841293059E+03    0.22423E+01   -0.47127E+00  8532   0.194E+01    0.326E+00
DAV:   6    -0.138899897442E+03   -0.58604E-01   -0.75434E-01  8660   0.458E+00    0.275E+00
DAV:   7    -0.138908408845E+03   -0.85114E-02   -0.13364E-01  8104   0.165E+00    0.249E+00
DAV:   8    -0.138906355715E+03    0.20531E-02   -0.31925E-02  8088   0.874E-01    0.211E+00
DAV:   9    -0.138898600521E+03    0.77552E-02   -0.39682E-02  8432   0.135E+00    0.168E+00
DAV:  10    -0.138888424700E+03    0.10176E-01   -0.20712E-02  9348   0.112E+00    0.941E-01
DAV:  11    -0.138884988021E+03    0.34367E-02   -0.13507E-02  9496   0.913E-01    0.489E-01
DAV:  12    -0.138885130069E+03   -0.14205E-03   -0.35467E-03  8052   0.326E-01    0.412E-01
DAV:  13    -0.138884936532E+03    0.19354E-03   -0.74065E-04  8128   0.250E-01    0.214E-01
DAV:  14    -0.138885100238E+03   -0.16371E-03   -0.98157E-04  9164   0.206E-01    0.103E-01
DAV:  15    -0.138885088594E+03    0.11644E-04   -0.27345E-04  7408   0.125E-01    0.769E-02
DAV:  16    -0.138885061221E+03    0.27373E-04   -0.92510E-05  7536   0.764E-02    0.542E-02
DAV:  17    -0.138885068494E+03   -0.72730E-05   -0.54172E-05  6872   0.531E-02
  43 F= -.15236004E+03 E0= -.15231834E+03  d E =-.284099E-01
       N       E                     dE             d eps       ncg     rms          rms(c)
DAV:   1    -0.137646709301E+03    0.12384E+01   -0.25983E+01 10768   0.521E+01    0.523E+00
DAV:   2    -0.138873701494E+03   -0.12270E+01   -0.12552E+01  7736   0.655E+00    0.234E+00
DAV:   3    -0.138959324995E+03   -0.85624E-01   -0.68756E-01 10304   0.532E+00    0.272E+00
DAV:   4    -0.138923823722E+03    0.35501E-01   -0.44912E-01  8520   0.556E+00    0.189E+00
DAV:   5    -0.138900523004E+03    0.23301E-01   -0.78332E-02  9396   0.250E+00    0.143E+00
DAV:   6    -0.138900512727E+03    0.10276E-04   -0.10065E-02  8512   0.517E-01    0.124E+00
DAV:   7    -0.138900570717E+03   -0.57989E-04   -0.27633E-03  8612   0.292E-01    0.965E-01
DAV:   8    -0.138900562253E+03    0.84635E-05   -0.17026E-03  8144   0.341E-01    0.454E-01
DAV:   9    -0.138900642980E+03   -0.80727E-04   -0.17541E-03  9792   0.366E-01    0.218E-01
DAV:  10    -0.138900701114E+03   -0.58133E-04   -0.41086E-04  9696   0.113E-01    0.163E-01
DAV:  11    -0.138900710613E+03   -0.94991E-05   -0.73933E-05  7056   0.622E-02
  44 F= -.15236936E+03 E0= -.15232822E+03  d E =-.931905E-02
       N       E                     dE             d eps       ncg     rms          rms(c)
DAV:   1    -0.125450278723E+03    0.13450E+02   -0.23764E+02  9008   0.147E+02    0.192E+01
DAV:   2    -0.140853690697E+03   -0.15403E+02   -0.15056E+02  8344   0.394E+01    0.210E+01
DAV:   3    -0.141436532432E+03   -0.58284E+00   -0.20689E+01  8496   0.345E+01    0.121E+01
DAV:   4    -0.142332887759E+03   -0.89636E+00   -0.20559E+01  9204   0.450E+01    0.140E+01
DAV:   5    -0.138880973650E+03    0.34519E+01   -0.62204E+00  9288   0.209E+01    0.501E+00
DAV:   6    -0.138948161859E+03   -0.67188E-01   -0.97907E-01  7932   0.407E+00    0.436E+00
DAV:   7    -0.138951364956E+03   -0.32031E-02   -0.94747E-02  8232   0.135E+00    0.404E+00
DAV:   8    -0.138949814892E+03    0.15501E-02   -0.45387E-02  8264   0.888E-01    0.353E+00
DAV:   9    -0.138945130377E+03    0.46845E-02   -0.37755E-02  8228   0.150E+00    0.285E+00
DAV:  10    -0.138935250720E+03    0.98797E-02   -0.28318E-02  9584   0.149E+00    0.155E+00
DAV:  11    -0.138936049690E+03   -0.79897E-03   -0.13837E-02  8368   0.817E-01    0.114E+00
DAV:  12    -0.138935851180E+03    0.19851E-03   -0.28388E-03  7832   0.408E-01    0.105E+00
DAV:  13    -0.138934911569E+03    0.93961E-03   -0.12986E-03  8620   0.315E-01    0.800E-01
DAV:  14    -0.138934307666E+03    0.60390E-03   -0.39062E-03  8172   0.543E-01    0.295E-01
DAV:  15    -0.138934457443E+03   -0.14978E-03   -0.17023E-03  7712   0.176E-01    0.267E-01
DAV:  16    -0.138934495289E+03   -0.37845E-04   -0.12454E-04  7456   0.762E-02    0.194E-01
DAV:  17    -0.138934509954E+03   -0.14665E-04   -0.24030E-04  7116   0.952E-02    0.659E-02
DAV:  18    -0.138934532966E+03   -0.23012E-04   -0.54273E-05  6752   0.737E-02    0.625E-02
DAV:  19    -0.138934540639E+03   -0.76727E-05   -0.35450E-05  6524   0.315E-02
  45 F= -.15238308E+03 E0= -.15234352E+03  d E =-.230358E-01
       N       E                     dE             d eps       ncg     rms          rms(c)
DAV:   1    -0.137896914531E+03    0.10376E+01   -0.22670E+01 10172   0.520E+01    0.432E+00
DAV:   2    -0.138944573124E+03   -0.10477E+01   -0.10719E+01  7700   0.651E+00    0.204E+00
DAV:   3    -0.139038159749E+03   -0.93587E-01   -0.69147E-01 10372   0.558E+00    0.263E+00
DAV:   4    -0.138985769691E+03    0.52390E-01   -0.49373E-01  8548   0.578E+00    0.163E+00
DAV:   5    -0.138967091885E+03    0.18678E-01   -0.69279E-02 10212   0.231E+00    0.119E+00
DAV:   6    -0.138967176178E+03   -0.84293E-04   -0.10269E-02  8332   0.505E-01    0.102E+00
DAV:   7    -0.138967220066E+03   -0.43888E-04   -0.25878E-03  8360   0.285E-01    0.792E-01
DAV:   8    -0.138967303282E+03   -0.83216E-04   -0.14600E-03  7748   0.336E-01    0.376E-01
DAV:   9    -0.138967333369E+03   -0.30087E-04   -0.16203E-03  9876   0.359E-01    0.195E-01
DAV:  10    -0.138967367779E+03   -0.34410E-04   -0.38503E-04  9824   0.118E-01    0.149E-01
DAV:  11    -0.138967371969E+03   -0.41900E-05   -0.78028E-05  7056   0.650E-02
  46 F= -.15240877E+03 E0= -.15236959E+03  d E =-.256983E-01
       N       E                     dE             d eps       ncg     rms          rms(c)
DAV:   1    -0.129597010659E+03    0.93704E+01   -0.21725E+02 10992   0.150E+02    0.194E+01
[...]
DAV:   9    -0.139549506906E+03   -0.70027E-04   -0.96480E-04 10720   0.212E-01    0.135E-01
DAV:  10    -0.139549514566E+03   -0.76599E-05   -0.30921E-04  7508   0.935E-02    0.113E-01
DAV:  11    -0.139549519497E+03   -0.49315E-05   -0.48974E-05  7056   0.573E-02
  59 F= -.15290802E+03 E0= -.15286718E+03  d E =-.405326E-01
       N       E                     dE             d eps       ncg     rms          rms(c)
DAV:   1    -0.138619577637E+03    0.92994E+00   -0.19828E+01  9952   0.559E+01    0.351E+00
DAV:   2    -0.139549115165E+03   -0.92954E+00   -0.94924E+00  7816   0.692E+00    0.178E+00
DAV:   3    -0.139596555999E+03   -0.47441E-01   -0.40055E-01 11632   0.474E+00    0.193E+00
DAV:   4    -0.139583113951E+03    0.13442E-01   -0.34910E-01  8512   0.506E+00    0.160E+00
DAV:   5    -0.139558693055E+03    0.24421E-01   -0.61862E-02  8716   0.226E+00    0.976E-01
DAV:   6    -0.139558992504E+03   -0.29945E-03   -0.10151E-02  8428   0.505E-01    0.759E-01
DAV:   7    -0.139558905507E+03    0.86996E-04   -0.21494E-03  8188   0.306E-01    0.479E-01
DAV:   8    -0.139558887346E+03    0.18161E-04   -0.13726E-03  8344   0.328E-01    0.199E-01
DAV:   9    -0.139558955176E+03   -0.67830E-04   -0.78159E-04 10552   0.199E-01    0.129E-01
DAV:  10    -0.139558963697E+03   -0.85213E-05   -0.25590E-04  7484   0.866E-02    0.108E-01
DAV:  11    -0.139558969276E+03   -0.55796E-05   -0.46875E-05  7200   0.605E-02
  60 F= -.15292455E+03 E0= -.15288363E+03  d E =-.570604E-01
       N       E                     dE             d eps       ncg     rms          rms(c)
DAV:   1    -0.138329611149E+03    0.12294E+01   -0.24538E+01 10152   0.643E+01    0.408E+00
DAV:   2    -0.139539947563E+03   -0.12103E+01   -0.12383E+01  7828   0.769E+00    0.179E+00
DAV:   3    -0.139595154510E+03   -0.55207E-01   -0.56221E-01 11744   0.425E+00    0.181E+00
DAV:   4    -0.139599754867E+03   -0.46004E-02   -0.27373E-01  8580   0.449E+00    0.171E+00
DAV:   5    -0.139574883320E+03    0.24872E-01   -0.70466E-02  8388   0.239E+00    0.113E+00
DAV:   6    -0.139575296398E+03   -0.41308E-03   -0.93816E-03  8300   0.454E-01    0.975E-01
DAV:   7    -0.139575175125E+03    0.12127E-03   -0.16245E-03  8352   0.198E-01    0.805E-01
DAV:   8    -0.139574964072E+03    0.21105E-03   -0.99834E-04  7944   0.314E-01    0.398E-01
DAV:   9    -0.139574970086E+03   -0.60139E-05   -0.16449E-03 10872   0.380E-01    0.134E-01
DAV:  10    -0.139575032804E+03   -0.62718E-04   -0.54510E-04  9884   0.124E-01    0.110E-01
DAV:  11    -0.139575049430E+03   -0.16627E-04   -0.97449E-05  7244   0.654E-02    0.825E-02
DAV:  12    -0.139575040520E+03    0.89104E-05   -0.47644E-05  6656   0.657E-02
  61 F= -.15295063E+03 E0= -.15290974E+03  d E =-.260781E-01
       N       E                     dE             d eps       ncg     rms          rms(c)
DAV:   1    -0.138462924313E+03    0.11121E+01   -0.22021E+01 10152   0.608E+01    0.381E+00
DAV:   2    -0.139542662245E+03   -0.10797E+01   -0.11051E+01  7752   0.719E+00    0.162E+00
DAV:   3    -0.139580464524E+03   -0.37802E-01   -0.44486E-01 10660   0.308E+00    0.143E+00
DAV:   4    -0.139588347111E+03   -0.78826E-02   -0.12052E-01  8368   0.292E+00    0.146E+00
DAV:   5    -0.139575265657E+03    0.13081E-01   -0.43964E-02  8180   0.184E+00    0.106E+00
DAV:   6    -0.139574957372E+03    0.30829E-03   -0.46267E-03  8400   0.449E-01    0.922E-01
DAV:   7    -0.139574902753E+03    0.54618E-04   -0.15692E-03  8424   0.219E-01    0.722E-01
DAV:   8    -0.139574578409E+03    0.32434E-03   -0.14894E-03  7732   0.376E-01    0.278E-01
DAV:   9    -0.139574629332E+03   -0.50922E-04   -0.16469E-03 10432   0.359E-01    0.125E-01
DAV:  10    -0.139574660984E+03   -0.31652E-04   -0.48049E-04  8124   0.107E-01    0.103E-01
DAV:  11    -0.139574669538E+03   -0.85549E-05   -0.64689E-05  6912   0.580E-02
  62 F= -.15295969E+03 E0= -.15291881E+03  d E =-.351464E-01
       N       E                     dE             d eps       ncg     rms          rms(c)
DAV:   1    -0.138880698211E+03    0.69396E+00   -0.14023E+01 10288   0.492E+01    0.290E+00
DAV:   2    -0.139557526368E+03   -0.67683E+00   -0.69305E+00  7688   0.571E+00    0.128E+00
DAV:   3    -0.139577374186E+03   -0.19848E-01   -0.25243E-01  9600   0.213E+00    0.106E+00
DAV:   4    -0.139576706864E+03    0.66732E-03   -0.26549E-02  8404   0.125E+00    0.906E-01
DAV:   5    -0.139576439933E+03    0.26693E-03   -0.10397E-02  8076   0.929E-01    0.844E-01
DAV:   6    -0.139575173359E+03    0.12666E-02   -0.44479E-03  7880   0.566E-01    0.708E-01
DAV:   7    -0.139575251065E+03   -0.77706E-04   -0.19888E-03  9244   0.348E-01    0.358E-01
DAV:   8    -0.139575299451E+03   -0.48387E-04   -0.19288E-03  8848   0.352E-01    0.107E-01
DAV:   9    -0.139575334599E+03   -0.35148E-04   -0.66444E-04  9472   0.143E-01    0.102E-01
DAV:  10    -0.139575354286E+03   -0.19687E-04   -0.12187E-04  6956   0.574E-02    0.699E-02
DAV:  11    -0.139575355223E+03   -0.93764E-06   -0.40988E-05  5040   0.513E-02
  63 F= -.15297114E+03 E0= -.15293016E+03  d E =-.114449E-01
       N       E                     dE             d eps       ncg     rms          rms(c)
DAV:   1    -0.139024272054E+03    0.55108E+00   -0.11106E+01 10264   0.439E+01    0.253E+00
DAV:   2    -0.139556678138E+03   -0.53241E+00   -0.54495E+00  7712   0.503E+00    0.109E+00
DAV:   3    -0.139577719533E+03   -0.21041E-01   -0.21573E-01 10860   0.234E+00    0.109E+00
DAV:   4    -0.139576889073E+03    0.83046E-03   -0.80382E-02  8360   0.251E+00    0.997E-01
DAV:   5    -0.139570021887E+03    0.68672E-02   -0.27131E-02  8028   0.147E+00    0.726E-01
DAV:   6    -0.139569862763E+03    0.15912E-03   -0.34241E-03  8924   0.339E-01    0.584E-01
DAV:   7    -0.139569955009E+03   -0.92246E-04   -0.83750E-04  9448   0.265E-01    0.349E-01
DAV:   8    -0.139570084658E+03   -0.12965E-03   -0.83018E-04  8600   0.295E-01    0.115E-01
DAV:   9    -0.139570122600E+03   -0.37942E-04   -0.47112E-04  9704   0.134E-01    0.781E-02
DAV:  10    -0.139570129993E+03   -0.73923E-05   -0.87567E-05  7528   0.406E-02
  64 F= -.15297545E+03 E0= -.15293436E+03  d E =-.157514E-01
       N       E                     dE             d eps       ncg     rms          rms(c)
DAV:   1    -0.139071016324E+03    0.49911E+00   -0.10001E+01 10336   0.429E+01    0.239E+00
DAV:   2    -0.139554934262E+03   -0.48392E+00   -0.49606E+00  7752   0.498E+00    0.114E+00
DAV:   3    -0.139569085255E+03   -0.14151E-01   -0.18557E-01  9684   0.207E+00    0.884E-01
DAV:   4    -0.139568402713E+03    0.68254E-03   -0.22283E-02  8304   0.127E+00    0.756E-01
DAV:   5    -0.139567870412E+03    0.53230E-03   -0.10410E-02  8164   0.913E-01    0.704E-01
DAV:   6    -0.139566915644E+03    0.95477E-03   -0.37016E-03  8396   0.513E-01    0.571E-01
DAV:   7    -0.139566992294E+03   -0.76650E-04   -0.12621E-03  7996   0.269E-01    0.306E-01
DAV:   8    -0.139567175198E+03   -0.18290E-03   -0.10838E-03  9064   0.301E-01    0.884E-02
DAV:   9    -0.139567178594E+03   -0.33958E-05   -0.51511E-04  9512   0.135E-01    0.751E-02
DAV:  10    -0.139567199787E+03   -0.21193E-04   -0.77284E-05  6960   0.430E-02    0.571E-02
DAV:  11    -0.139567203482E+03   -0.36949E-05   -0.23130E-05  4524   0.376E-02
  65 F= -.15298229E+03 E0= -.15294125E+03  d E =-.684232E-02
       N       E                     dE             d eps       ncg     rms          rms(c)
DAV:   1    -0.139512131623E+03    0.55068E-01   -0.11092E+00 10872   0.142E+01    0.686E-01
DAV:   2    -0.139563481102E+03   -0.51349E-01   -0.52552E-01  7704   0.161E+00    0.347E-01
DAV:   3    -0.139566336506E+03   -0.28554E-02   -0.23136E-02  9336   0.100E+00    0.394E-01
DAV:   4    -0.139564745791E+03    0.15907E-02   -0.91339E-03  8304   0.840E-01    0.245E-01
DAV:   5    -0.139564557002E+03    0.18879E-03   -0.11465E-03 10296   0.290E-01    0.199E-01
DAV:   6    -0.139564556608E+03    0.39401E-06   -0.25322E-04  7796   0.103E-01    0.151E-01
DAV:   7    -0.139564597172E+03   -0.40564E-04   -0.54556E-05  6536   0.769E-02    0.984E-02
DAV:   8    -0.139564645979E+03   -0.48806E-04   -0.61375E-05  7504   0.822E-02    0.447E-02
DAV:   9    -0.139564664056E+03   -0.18077E-04   -0.39472E-05  6340   0.483E-02    0.231E-02
DAV:  10    -0.139564665873E+03   -0.18174E-05   -0.17663E-05  4772   0.158E-02
  66 F= -.15298298E+03 E0= -.15294196E+03  d E =-.753653E-02
       N       E                     dE             d eps       ncg     rms          rms(c)
DAV:   1    -0.139077858712E+03    0.48681E+00   -0.98682E+00 10176   0.434E+01    0.230E+00
DAV:   2    -0.139545096827E+03   -0.46724E+00   -0.47851E+00  7728   0.491E+00    0.977E-01
DAV:   3    -0.139560243317E+03   -0.15146E-01   -0.17346E-01 10248   0.174E+00    0.863E-01
DAV:   4    -0.139562959499E+03   -0.27162E-02   -0.48702E-02  8584   0.189E+00    0.881E-01
DAV:   5    -0.139557408582E+03    0.55509E-02   -0.20713E-02  7900   0.130E+00    0.651E-01
DAV:   6    -0.139557225877E+03    0.18271E-03   -0.20962E-03  9472   0.313E-01    0.533E-01
DAV:   7    -0.139557301238E+03   -0.75361E-04   -0.69091E-04  8496   0.227E-01    0.309E-01
DAV:   8    -0.139557462093E+03   -0.16085E-03   -0.72955E-04  8864   0.254E-01    0.114E-01
DAV:   9    -0.139557511505E+03   -0.49412E-04   -0.32445E-04 10536   0.111E-01    0.689E-02
DAV:  10    -0.139557522291E+03   -0.10786E-04   -0.80836E-05  7320   0.383E-02    0.524E-02
DAV:  11    -0.139557528772E+03   -0.64808E-05   -0.17363E-05  4336   0.394E-02
  67 F= -.15298691E+03 E0= -.15294586E+03  d E =-.392741E-02
       N       E                     dE             d eps       ncg     rms          rms(c)
DAV:   1    -0.139556738069E+03    0.78422E-03   -0.99428E-03 10372   0.137E+00    0.628E-02
DAV:   2    -0.139557312100E+03   -0.57403E-03   -0.48865E-03  9592   0.279E-01    0.103E-01
DAV:   3    -0.139557294983E+03    0.17117E-04   -0.17123E-03  9552   0.354E-01    0.796E-02
DAV:   4    -0.139557185278E+03    0.10971E-03   -0.35379E-04  5628   0.168E-01    0.256E-02
DAV:   5    -0.139557193281E+03   -0.80029E-05   -0.29909E-05  5344   0.347E-02
  68 F= -.15298692E+03 E0= -.15294587E+03  d E =-.394135E-02
       N       E                     dE             d eps       ncg     rms          rms(c)
DAV:   1    -0.139268395963E+03    0.28879E+00   -0.59452E+00 10152   0.334E+01    0.167E+00
DAV:   2    -0.139543037076E+03   -0.27464E+00   -0.28099E+00  7800   0.370E+00    0.735E-01
DAV:   3    -0.139554078543E+03   -0.11041E-01   -0.10695E-01 11792   0.155E+00    0.728E-01
DAV:   4    -0.139552530047E+03    0.15485E-02   -0.37213E-02  8432   0.165E+00    0.640E-01
DAV:   5    -0.139549947999E+03    0.25820E-02   -0.73255E-03  8208   0.797E-01    0.460E-01
DAV:   6    -0.139550004418E+03   -0.56419E-04   -0.12117E-03  8848   0.203E-01    0.384E-01
DAV:   7    -0.139550159467E+03   -0.15505E-03   -0.29953E-04  7828   0.152E-01    0.228E-01
DAV:   8    -0.139550315278E+03   -0.15581E-03   -0.35552E-04  8868   0.173E-01    0.789E-02
DAV:   9    -0.139550345270E+03   -0.29992E-04   -0.20698E-04 10704   0.102E-01    0.524E-02
DAV:  10    -0.139550352978E+03   -0.77080E-05   -0.57831E-05  7096   0.354E-02
  69 F= -.15298949E+03 E0= -.15294852E+03  d E =-.256696E-02
       N       E                     dE             d eps       ncg     rms          rms(c)
DAV:   1    -0.139541511418E+03    0.88339E-02   -0.16080E-01 10352   0.547E+00    0.247E-01
DAV:   2    -0.139548722911E+03   -0.72115E-02   -0.73964E-02  7740   0.610E-01    0.131E-01
DAV:   3    -0.139548992876E+03   -0.26996E-03   -0.25120E-03  7528   0.290E-01    0.109E-01
DAV:   4    -0.139548948893E+03    0.43983E-04   -0.78905E-04  8088   0.243E-01    0.951E-02
DAV:   5    -0.139548901535E+03    0.47358E-04   -0.30003E-04  5044   0.150E-01    0.749E-02
DAV:   6    -0.139548912113E+03   -0.10578E-04   -0.36316E-05  5824   0.461E-02    0.496E-02
DAV:   7    -0.139548925075E+03   -0.12962E-04   -0.31570E-05  4736   0.456E-02    0.276E-02
DAV:   8    -0.139548938053E+03   -0.12977E-04   -0.19260E-05  4528   0.236E-02    0.116E-02
DAV:   9    -0.139548940532E+03   -0.24795E-05   -0.76085E-06  4616   0.144E-02
  70 F= -.15298962E+03 E0= -.15294866E+03  d E =-.269830E-02
       N       E                     dE             d eps       ncg     rms          rms(c)
DAV:   1    -0.139508611481E+03    0.40327E-01   -0.87964E-01  9740   0.128E+01    0.588E-01
DAV:   2    -0.139546607892E+03   -0.37996E-01   -0.38948E-01  7656   0.147E+00    0.284E-01
DAV:   3    -0.139547528268E+03   -0.92038E-03   -0.11200E-02  8332   0.463E-01    0.189E-01
DAV:   4    -0.139547504326E+03    0.23941E-04   -0.11368E-03  8624   0.260E-01    0.179E-01
DAV:   5    -0.139547458408E+03    0.45918E-04   -0.61188E-04  7472   0.222E-01    0.160E-01
DAV:   6    -0.139547403755E+03    0.54653E-04   -0.18805E-04  6568   0.123E-01    0.123E-01
DAV:   7    -0.139547468812E+03   -0.65057E-04   -0.10094E-04  7792   0.968E-02    0.442E-02
DAV:   8    -0.139547485383E+03   -0.16571E-04   -0.70881E-05  8068   0.567E-02    0.174E-02
DAV:   9    -0.139547490061E+03   -0.46778E-05   -0.15858E-05  4588   0.235E-02
  71 F= -.15299080E+03 E0= -.15294990E+03  d E =-.117577E-02
       N       E                     dE             d eps       ncg     rms          rms(c)
DAV:   1    -0.139510589795E+03    0.36896E-01   -0.78671E-01  9756   0.121E+01    0.553E-01
DAV:   2    -0.139544595788E+03   -0.34006E-01   -0.34821E-01  7668   0.140E+00    0.281E-01
DAV:   3    -0.139545885112E+03   -0.12893E-02   -0.12056E-02  7784   0.712E-01    0.251E-01
DAV:   4    -0.139545603814E+03    0.28130E-03   -0.49008E-03  8980   0.621E-01    0.209E-01
DAV:   5    -0.139545286379E+03    0.31744E-03   -0.13020E-03 11016   0.302E-01    0.149E-01
DAV:   6    -0.139545299352E+03   -0.12973E-04   -0.16711E-04  8260   0.765E-02    0.114E-01
DAV:   7    -0.139545323507E+03   -0.24155E-04   -0.66260E-05  6524   0.706E-02    0.820E-02
DAV:   8    -0.139545356154E+03   -0.32647E-04   -0.39417E-05  6852   0.577E-02    0.389E-02
DAV:   9    -0.139545371821E+03   -0.15667E-04   -0.34381E-05  6220   0.417E-02    0.144E-02
DAV:  10    -0.139545374090E+03   -0.22697E-05   -0.11844E-05  4576   0.132E-02
  72 F= -.15299117E+03 E0= -.15295033E+03  d E =-.154702E-02
       N       E                     dE             d eps       ncg     rms          rms(c)
DAV:   1    -0.139496884117E+03    0.48488E-01   -0.10138E+00 10100   0.138E+01    0.654E-01
DAV:   2    -0.139542327847E+03   -0.45444E-01   -0.46486E-01  7672   0.155E+00    0.305E-01
DAV:   3    -0.139543595553E+03   -0.12677E-02   -0.14193E-02  8560   0.561E-01    0.216E-01
DAV:   4    -0.139543790081E+03   -0.19453E-03   -0.31485E-03  8576   0.478E-01    0.230E-01
DAV:   5    -0.139543412273E+03    0.37781E-03   -0.13050E-03  8404   0.318E-01    0.172E-01
DAV:   6    -0.139543418339E+03   -0.60662E-05   -0.13551E-04  9016   0.794E-02    0.133E-01
DAV:   7    -0.139543462976E+03   -0.44637E-04   -0.70763E-05  6436   0.831E-02    0.787E-02
DAV:   8    -0.139543491159E+03   -0.28183E-04   -0.90144E-05  8092   0.848E-02    0.218E-02
DAV:   9    -0.139543498984E+03   -0.78252E-05   -0.33371E-05  5608   0.319E-02
  73 F= -.15299201E+03 E0= -.15295126E+03  d E =-.840393E-03
       N       E                     dE             d eps       ncg     rms          rms(c)
DAV:   1    -0.139531440092E+03    0.12051E-01   -0.23928E-01 10148   0.669E+00    0.315E-01
DAV:   2    -0.139542120131E+03   -0.10680E-01   -0.10946E-01  7604   0.754E-01    0.151E-01
DAV:   3    -0.139542532641E+03   -0.41251E-03   -0.37177E-03  7684   0.363E-01    0.131E-01
DAV:   4    -0.139542467030E+03    0.65612E-04   -0.13390E-03  8324   0.320E-01    0.112E-01
DAV:   5    -0.139542377845E+03    0.89185E-04   -0.35634E-04  5776   0.165E-01    0.799E-02
DAV:   6    -0.139542391169E+03   -0.13324E-04   -0.61937E-05  7276   0.442E-02    0.565E-02
DAV:   7    -0.139542402863E+03   -0.11694E-04   -0.24176E-05  4572   0.431E-02    0.360E-02
DAV:   8    -0.139542414638E+03   -0.11775E-04   -0.12258E-05  4580   0.264E-02    0.153E-02
DAV:   9    -0.139542419164E+03   -0.45264E-05   -0.81710E-06  4372   0.162E-02
  74 F= -.15299225E+03 E0= -.15295154E+03  d E =-.107961E-02
       N       E                     dE             d eps       ncg     rms          rms(c)
DAV:   1    -0.139529176356E+03    0.13238E-01   -0.27879E-01 10392   0.710E+00    0.339E-01
DAV:   2    -0.139541869994E+03   -0.12694E-01   -0.13005E-01  7532   0.785E-01    0.156E-01
DAV:   3    -0.139542191895E+03   -0.32190E-03   -0.38106E-03  8820   0.234E-01    0.111E-01
DAV:   4    -0.139542227096E+03   -0.35202E-04   -0.60752E-04  8300   0.199E-01    0.114E-01
DAV:   5    -0.139542152843E+03    0.74253E-04   -0.29000E-04  5556   0.153E-01    0.903E-02
DAV:   6    -0.139542150781E+03    0.20622E-05   -0.28801E-05  4556   0.514E-02
  75 F= -.15299267E+03 E0= -.15295198E+03  d E =-.418727E-03
       N       E                     dE             d eps       ncg     rms          rms(c)
DAV:   1    -0.139431147529E+03    0.11101E+00   -0.23188E+00 10220   0.205E+01    0.997E-01
DAV:   2    -0.139538055073E+03   -0.10691E+00   -0.10908E+00  7692   0.228E+00    0.478E-01
DAV:   3    -0.139543372032E+03   -0.53170E-02   -0.44436E-02 11196   0.131E+00    0.535E-01
DAV:   4    -0.139540760156E+03    0.26119E-02   -0.17237E-02  8716   0.115E+00    0.367E-01
DAV:   5    -0.139540254466E+03    0.50569E-03   -0.21048E-03 10004   0.371E-01    0.277E-01
DAV:   6    -0.139540243635E+03    0.10831E-04   -0.51835E-04  8324   0.128E-01    0.217E-01
DAV:   7    -0.139540249243E+03   -0.56073E-05   -0.17826E-04  7640   0.132E-01    0.102E-01
DAV:   8    -0.139540279160E+03   -0.29918E-04   -0.16868E-04  8728   0.810E-02    0.382E-02
DAV:   9    -0.139540284281E+03   -0.51200E-05   -0.50918E-05  7088   0.374E-02
  76 F= -.15299279E+03 E0= -.15295218E+03  d E =-.543211E-03
       N       E                     dE             d eps       ncg     rms          rms(c)
DAV:   1    -0.139523898512E+03    0.16381E-01   -0.37298E-01 10348   0.821E+00    0.397E-01
DAV:   2    -0.139540857018E+03   -0.16959E-01   -0.17371E-01  7548   0.912E-01    0.183E-01
DAV:   3    -0.139541344993E+03   -0.48798E-03   -0.54419E-03  8144   0.342E-01    0.145E-01
DAV:   4    -0.139541330626E+03    0.14367E-04   -0.12750E-03  8164   0.296E-01    0.135E-01
DAV:   5    -0.139541232051E+03    0.98575E-04   -0.39110E-04  6820   0.180E-01    0.105E-01
DAV:   6    -0.139541227280E+03    0.47711E-05   -0.64660E-05  6704   0.650E-02
  77 F= -.15299294E+03 E0= -.15295231E+03  d E =-.688216E-03
       N       E                     dE             d eps       ncg     rms          rms(c)
DAV:   1    -0.139520074410E+03    0.21158E-01   -0.47854E-01 10196   0.914E+00    0.426E-01
DAV:   2    -0.139541088135E+03   -0.21014E-01   -0.21447E-01  7600   0.105E+00    0.233E-01
DAV:   3    -0.139542178482E+03   -0.10903E-02   -0.95549E-03  7900   0.665E-01    0.256E-01
DAV:   4    -0.139541607268E+03    0.57121E-03   -0.39355E-03  8264   0.553E-01    0.158E-01
DAV:   5    -0.139541529617E+03    0.77651E-04   -0.73167E-04 11144   0.244E-01    0.131E-01
DAV:   6    -0.139541495953E+03    0.33664E-04   -0.14849E-04  8112   0.944E-02    0.861E-02
DAV:   7    -0.139541502618E+03   -0.66651E-05   -0.60818E-05  7108   0.583E-02
  78 F= -.15299325E+03 E0= -.15295260E+03  d E =-.309418E-03
       N       E                     dE             d eps       ncg     rms          rms(c)
DAV:   1    -0.139541441524E+03    0.54429E-04   -0.16449E-03 11436   0.517E-01    0.491E-02
DAV:   2    -0.139541578606E+03   -0.13708E-03   -0.96945E-04  9552   0.176E-01    0.635E-02
DAV:   3    -0.139541585955E+03   -0.73487E-05   -0.79476E-04  8636   0.254E-01    0.613E-02
DAV:   4    -0.139541516059E+03    0.69896E-04   -0.23003E-04  4940   0.133E-01    0.134E-02
DAV:   5    -0.139541523091E+03   -0.70322E-05   -0.13853E-05  4564   0.229E-02
  79 F= -.15299327E+03 E0= -.15295262E+03  d E =-.327822E-03
