unknown system                          
           1
     7.529542    0.000000    0.000000
     3.764771    6.520775    0.000000
     0.000000    0.000000   26.207423
   Cu   C 
  36   2
Direct configuration=     1
   0.00000000  0.00000000  0.00000000
   0.00000000  0.33333333  0.00000000
   0.00000000  0.66666667  0.00000000
   0.33333333  0.00000000  0.00000000
   0.33333333  0.33333333  0.00000000
   0.33333333  0.66666667  0.00000000
   0.66666667  0.00000000  0.00000000
   0.66666667  0.33333333  0.00000000
   0.66666667  0.66666667  0.00000000
   0.11111111  0.11111111  0.07819471
   0.11111111  0.44444444  0.07819471
   0.11111111  0.77777778  0.07819471
   0.44444444  0.11111111  0.07819471
   0.44444444  0.44444444  0.07819471
   0.44444444  0.77777778  0.07819471
   0.77777778  0.11111111  0.07819471
   0.77777778  0.44444444  0.07819471
   0.77777778  0.77777778  0.07819471
   0.22156672  0.22156672  0.15698183
   0.22219376  0.55556979  0.15663707
   0.22156672  0.89019990  0.15698183
   0.55556979  0.22219376  0.15663707
   0.55556979  0.55556979  0.15663707
   0.55498583  0.88917375  0.15640686
   0.89019990  0.22156672  0.15698183
   0.88917375  0.55498583  0.15640686
   0.88917375  0.88917375  0.15640686
   0.99499124  0.99499124  0.23819225
   0.99499124  0.34335085  0.23819225
   0.99922840  0.66705247  0.23489935
   0.34335085  0.99499124  0.23819225
   0.33432735  0.33432735  0.23600336
   0.33432735  0.66467863  0.23600336
   0.66705247  0.99922840  0.23489935
   0.66467863  0.33432735  0.23600336
   0.66705247  0.66705247  0.23489935
   0.11111111  0.11111111  0.27869515
   0.50068991  0.16677788  0.32718691
Direct configuration=     2
   0.00000000  0.00000000  0.00000000
   0.00000000  0.33333333  0.00000000
   0.00000000  0.66666667  0.00000000
   0.33333333  0.00000000  0.00000000
   0.33333333  0.33333333  0.00000000
   0.33333333  0.66666667  0.00000000
   0.66666667  0.00000000  0.00000000
   0.66666667  0.33333333  0.00000000
   0.66666667  0.66666667  0.00000000
   0.11111111  0.11111111  0.07819471
   0.11111111  0.44444444  0.07819471
   0.11111111  0.77777778  0.07819471
   0.44444444  0.11111111  0.07819471
   0.44444444  0.44444444  0.07819471
   0.44444444  0.77777778  0.07819471
   0.77777778  0.11111111  0.07819471
   0.77777778  0.44444444  0.07819471
   0.77777778  0.77777778  0.07819471
   0.22197593  0.22174439  0.15705065
   0.22235066  0.55519900  0.15666039
   0.22180735  0.89004098  0.15705460
   0.55544167  0.22230773  0.15647855
   0.55566637  0.55546159  0.15669165
   0.55504885  0.88935184  0.15635277
   0.88996100  0.22161418  0.15702236
   0.88912641  0.55510073  0.15645225
   0.88879472  0.88930907  0.15642172
   0.99562924  0.99486502  0.23826281
   0.99489968  0.34311497  0.23818344
   0.99923873  0.66694342  0.23494673
   0.34350745  0.99472775  0.23867030
   0.33639172  0.33280341  0.23782530
   0.33421208  0.66472441  0.23604651
   0.66564683  0.00092388  0.23675186
   0.66401706  0.33408333  0.23659870
   0.66719277  0.66695948  0.23493427
   0.11121408  0.11167158  0.27888728
   0.49975825  0.16672528  0.32227018
Direct configuration=     3
   0.00000000  0.00000000  0.00000000
   0.00000000  0.33333333  0.00000000
   0.00000000  0.66666667  0.00000000
   0.33333333  0.00000000  0.00000000
   0.33333333  0.33333333  0.00000000
   0.33333333  0.66666667  0.00000000
   0.66666667  0.00000000  0.00000000
   0.66666667  0.33333333  0.00000000
   0.66666667  0.66666667  0.00000000
   0.11111111  0.11111111  0.07819471
   0.11111111  0.44444444  0.07819471
   0.11111111  0.77777778  0.07819471
   0.44444444  0.11111111  0.07819471
   0.44444444  0.44444444  0.07819471
   0.44444444  0.77777778  0.07819471
   0.77777778  0.11111111  0.07819471
   0.77777778  0.44444444  0.07819471
   0.77777778  0.77777778  0.07819471
   0.22320358  0.22227743  0.15725709
   0.22282136  0.55408664  0.15673034
   0.22252923  0.88956423  0.15727290
   0.55505733  0.22264961  0.15600299
   0.55595612  0.55513702  0.15685536
   0.55523790  0.88988611  0.15619050
   0.88924429  0.22175656  0.15714395
   0.88898439  0.55544544  0.15658845
   0.88765762  0.88971503  0.15646632
   0.99754322  0.99448637  0.23847448
   0.99462499  0.34240733  0.23815700
   0.99926971  0.66661628  0.23508888
   0.34397726  0.99393728  0.24010444
   0.34258483  0.32823160  0.24329112
   0.33386626  0.66486174  0.23617597
   0.66142990  0.00601031  0.24230940
   0.66203233  0.33335128  0.23838472
   0.66761369  0.66668054  0.23503901
   0.11152297  0.11335297  0.27946366
   0.49696327  0.16656749  0.30752001
Direct configuration=     4
   0.00000000  0.00000000  0.00000000
   0.00000000  0.33333333  0.00000000
   0.00000000  0.66666667  0.00000000
   0.33333333  0.00000000  0.00000000
   0.33333333  0.33333333  0.00000000
   0.33333333  0.66666667  0.00000000
   0.66666667  0.00000000  0.00000000
   0.66666667  0.33333333  0.00000000
   0.66666667  0.66666667  0.00000000
   0.11111111  0.11111111  0.07819471
   0.11111111  0.44444444  0.07819471
   0.11111111  0.77777778  0.07819471
   0.44444444  0.11111111  0.07819471
   0.44444444  0.44444444  0.07819471
   0.44444444  0.77777778  0.07819471
   0.77777778  0.11111111  0.07819471
   0.77777778  0.44444444  0.07819471
   0.77777778  0.77777778  0.07819471
   0.22565888  0.22334349  0.15766999
   0.22376276  0.55186192  0.15687025
   0.22397300  0.88861072  0.15770952
   0.55428865  0.22333339  0.15505187
   0.55653563  0.55448788  0.15718279
   0.55561600  0.89095466  0.15586597
   0.88781088  0.22204133  0.15738713
   0.88870034  0.55613484  0.15686084
   0.88538342  0.89052696  0.15655553
   0.00137119  0.99372905  0.23889782
   0.99407560  0.34099206  0.23810413
   0.99933167  0.66596200  0.23537317
   0.34491688  0.99235633  0.24297272
   0.35497105  0.31908796  0.25422276
   0.33317464  0.66513640  0.23643488
   0.65299606  0.01618318  0.25342448
   0.65806287  0.33188718  0.24195675
   0.66845553  0.66612266  0.23524849
   0.11214075  0.11671575  0.28061643
   0.49137332  0.16625190  0.27801966
Direct configuration=     5
   0.00000000  0.00000000  0.00000000
   0.00000000  0.33333333  0.00000000
   0.00000000  0.66666667  0.00000000
   0.33333333  0.00000000  0.00000000
   0.33333333  0.33333333  0.00000000
   0.33333333  0.66666667  0.00000000
   0.66666667  0.00000000  0.00000000
   0.66666667  0.33333333  0.00000000
   0.66666667  0.66666667  0.00000000
   0.11111111  0.11111111  0.07819471
   0.11111111  0.44444444  0.07819471
   0.11111111  0.77777778  0.07819471
   0.44444444  0.11111111  0.07819471
   0.44444444  0.44444444  0.07819471
   0.44444444  0.77777778  0.07819471
   0.77777778  0.11111111  0.07819471
   0.77777778  0.44444444  0.07819471
   0.77777778  0.77777778  0.07819471
   0.22336723  0.22234848  0.15728461
   0.22288411  0.55393836  0.15673967
   0.22262546  0.88950067  0.15730200
   0.55500610  0.22269519  0.15593960
   0.55599475  0.55509376  0.15687718
   0.55526310  0.88995733  0.15616887
   0.88914876  0.22177554  0.15716016
   0.88896546  0.55549139  0.15660660
   0.88750604  0.88976915  0.15647227
  -0.00220165  0.99443589  0.23850270
   0.99458837  0.34231301  0.23815348
   0.99927384  0.66657267  0.23510783
   0.34403989  0.99383191  0.24029561
   0.34341037  0.32762217  0.24401971
   0.33382017  0.66488005  0.23619323
   0.66086779  0.00668833  0.24305022
   0.66176776  0.33325370  0.23862279
   0.66766980  0.66664336  0.23505297
   0.11156414  0.11357710  0.27954049
   0.49659070  0.16654645  0.30555381
Direct configuration=     6
   0.00000000  0.00000000  0.00000000
   0.00000000  0.33333333  0.00000000
   0.00000000  0.66666667  0.00000000
   0.33333333  0.00000000  0.00000000
   0.33333333  0.33333333  0.00000000
   0.33333333  0.66666667  0.00000000
   0.66666667  0.00000000  0.00000000
   0.66666667  0.33333333  0.00000000
   0.66666667  0.66666667  0.00000000
   0.11111111  0.11111111  0.07819471
   0.11111111  0.44444444  0.07819471
   0.11111111  0.77777778  0.07819471
   0.44444444  0.11111111  0.07819471
   0.44444444  0.44444444  0.07819471
   0.44444444  0.77777778  0.07819471
   0.77777778  0.11111111  0.07819471
   0.77777778  0.44444444  0.07819471
   0.77777778  0.77777778  0.07819471
   0.22371302  0.22249862  0.15734276
   0.22301669  0.55362504  0.15675937
   0.22282879  0.88936639  0.15736350
   0.55489784  0.22279149  0.15580565
   0.55607636  0.55500234  0.15692330
   0.55531635  0.89010782  0.15612316
   0.88894688  0.22181565  0.15719441
   0.88892545  0.55558848  0.15664497
   0.88718575  0.88988350  0.15648483
  -0.00166253  0.99432924  0.23856232
   0.99451099  0.34211368  0.23814603
   0.99928256  0.66648053  0.23514786
   0.34417222  0.99360925  0.24069957
   0.34515479  0.32633442  0.24555928
   0.33372276  0.66491873  0.23622969
   0.65968000  0.00812104  0.24461563
   0.66120872  0.33304750  0.23912586
   0.66778836  0.66656479  0.23508247
   0.11165115  0.11405070  0.27970284
   0.49580344  0.16650201  0.30139910
Direct configuration=     7
   0.00000000  0.00000000  0.00000000
   0.00000000  0.33333333  0.00000000
   0.00000000  0.66666667  0.00000000
   0.33333333  0.00000000  0.00000000
   0.33333333  0.33333333  0.00000000
   0.33333333  0.66666667  0.00000000
   0.66666667  0.00000000  0.00000000
   0.66666667  0.33333333  0.00000000
   0.66666667  0.66666667  0.00000000
   0.11111111  0.11111111  0.07819471
   0.11111111  0.44444444  0.07819471
   0.11111111  0.77777778  0.07819471
   0.44444444  0.11111111  0.07819471
   0.44444444  0.44444444  0.07819471
   0.44444444  0.77777778  0.07819471
   0.77777778  0.11111111  0.07819471
   0.77777778  0.44444444  0.07819471
   0.77777778  0.77777778  0.07819471
   0.22468595  0.22292105  0.15750638
   0.22338972  0.55274348  0.15681481
   0.22340089  0.88898855  0.15753651
   0.55459325  0.22306244  0.15542876
   0.55630600  0.55474511  0.15705304
   0.55546618  0.89053124  0.15599457
   0.88837888  0.22192849  0.15729077
   0.88881290  0.55586166  0.15675290
   0.88628459  0.89020523  0.15652018
  -0.00014567  0.99402914  0.23873007
   0.99429330  0.34155287  0.23812508
   0.99930711  0.66622127  0.23526051
   0.34454455  0.99298279  0.24183614
   0.35006292  0.32271119  0.24989102
   0.33344870  0.66502757  0.23633229
   0.65633803  0.01215211  0.24902005
   0.65963579  0.33246734  0.24054131
   0.66812195  0.66634372  0.23516548
   0.11189595  0.11538323  0.28015963
   0.49358838  0.16637695  0.28970938
Direct configuration=     8
   0.00000000  0.00000000  0.00000000
   0.00000000  0.33333333  0.00000000
   0.00000000  0.66666667  0.00000000
   0.33333333  0.00000000  0.00000000
   0.33333333  0.33333333  0.00000000
   0.33333333  0.66666667  0.00000000
   0.66666667  0.00000000  0.00000000
   0.66666667  0.33333333  0.00000000
   0.66666667  0.66666667  0.00000000
   0.11111111  0.11111111  0.07819471
   0.11111111  0.44444444  0.07819471
   0.11111111  0.77777778  0.07819471
   0.44444444  0.11111111  0.07819471
   0.44444444  0.44444444  0.07819471
   0.44444444  0.77777778  0.07819471
   0.77777778  0.11111111  0.07819471
   0.77777778  0.44444444  0.07819471
   0.77777778  0.77777778  0.07819471
   0.22380420  0.22253821  0.15735810
   0.22305165  0.55354242  0.15676457
   0.22288241  0.88933098  0.15737971
   0.55486930  0.22281688  0.15577033
   0.55609788  0.55497823  0.15693546
   0.55533039  0.89014750  0.15611111
   0.88889365  0.22182622  0.15720344
   0.88891490  0.55561408  0.15665508
   0.88710130  0.88991365  0.15648815
  -0.00152038  0.99430111  0.23857804
   0.99449059  0.34206113  0.23814407
   0.99928486  0.66645623  0.23515842
   0.34420711  0.99355054  0.24080608
   0.34561476  0.32599487  0.24596523
   0.33369708  0.66492893  0.23623931
   0.65936681  0.00849881  0.24502839
   0.66106131  0.33299313  0.23925851
   0.66781962  0.66654407  0.23509025
   0.11167409  0.11417558  0.27974565
   0.49559585  0.16649029  0.30030360
Direct configuration=     9
   0.00000000  0.00000000  0.00000000
   0.00000000  0.33333333  0.00000000
   0.00000000  0.66666667  0.00000000
   0.33333333  0.00000000  0.00000000
   0.33333333  0.33333333  0.00000000
   0.33333333  0.66666667  0.00000000
   0.66666667  0.00000000  0.00000000
   0.66666667  0.33333333  0.00000000
   0.66666667  0.66666667  0.00000000
   0.11111111  0.11111111  0.07819471
   0.11111111  0.44444444  0.07819471
   0.11111111  0.77777778  0.07819471
   0.44444444  0.11111111  0.07819471
   0.44444444  0.44444444  0.07819471
   0.44444444  0.77777778  0.07819471
   0.77777778  0.11111111  0.07819471
   0.77777778  0.44444444  0.07819471
   0.77777778  0.77777778  0.07819471
   0.22375978  0.22257556  0.15820133
   0.22299527  0.55343171  0.15747758
   0.22246856  0.89008261  0.15766227
   0.55511489  0.22198344  0.15738709
   0.55600824  0.55486287  0.15735705
   0.55564577  0.89112313  0.15712020
   0.88939643  0.22164209  0.15765418
   0.88942137  0.55535168  0.15684427
   0.88620939  0.89034234  0.15734432
  -0.00143413  0.99462863  0.23860038
   0.99448218  0.34259689  0.23795168
   0.99938479  0.66679493  0.23510370
   0.34638989  0.99040364  0.24084216
   0.32937053  0.34096065  0.24626563
   0.33362957  0.66390297  0.23611541
   0.67237983 -0.00437897  0.24630291
   0.66420803  0.33452603  0.23968465
   0.66788626  0.66674919  0.23493813
   0.10598303  0.11620244  0.28033893
   0.49892028  0.16271471  0.29221546
Direct configuration=    10
   0.00000000  0.00000000  0.00000000
   0.00000000  0.33333333  0.00000000
   0.00000000  0.66666667  0.00000000
   0.33333333  0.00000000  0.00000000
   0.33333333  0.33333333  0.00000000
   0.33333333  0.66666667  0.00000000
   0.66666667  0.00000000  0.00000000
   0.66666667  0.33333333  0.00000000
   0.66666667  0.66666667  0.00000000
   0.11111111  0.11111111  0.07819471
   0.11111111  0.44444444  0.07819471
   0.11111111  0.77777778  0.07819471
   0.44444444  0.11111111  0.07819471
   0.44444444  0.44444444  0.07819471
   0.44444444  0.77777778  0.07819471
   0.77777778  0.11111111  0.07819471
   0.77777778  0.44444444  0.07819471
   0.77777778  0.77777778  0.07819471
   0.22375250  0.22258168  0.15833948
   0.22298603  0.55341357  0.15759439
   0.22240076  0.89020576  0.15770857
   0.55515513  0.22184689  0.15765197
   0.55599355  0.55484397  0.15742613
   0.55569744  0.89128297  0.15728553
   0.88947881  0.22161193  0.15772803
   0.88950435  0.55530869  0.15687527
   0.88606326  0.89041258  0.15748459
  -0.00142000  0.99468229  0.23860404
   0.99448080  0.34268467  0.23792016
   0.99940116  0.66685042  0.23509473
   0.34674751  0.98988805  0.24084807
   0.32670910  0.34341262  0.24631485
   0.33361851  0.66373488  0.23609511
   0.67451187 -0.00648886  0.24651173
   0.66472358  0.33477718  0.23975446
   0.66789718  0.66678279  0.23491321
   0.10505062  0.11653451  0.28043613
   0.49946495  0.16209613  0.29089031
Direct configuration=    11
   0.00000000  0.00000000  0.00000000
   0.00000000  0.33333333  0.00000000
   0.00000000  0.66666667  0.00000000
   0.33333333  0.00000000  0.00000000
   0.33333333  0.33333333  0.00000000
   0.33333333  0.66666667  0.00000000
   0.66666667  0.00000000  0.00000000
   0.66666667  0.33333333  0.00000000
   0.66666667  0.66666667  0.00000000
   0.11111111  0.11111111  0.07819471
   0.11111111  0.44444444  0.07819471
   0.11111111  0.77777778  0.07819471
   0.44444444  0.11111111  0.07819471
   0.44444444  0.44444444  0.07819471
   0.44444444  0.77777778  0.07819471
   0.77777778  0.11111111  0.07819471
   0.77777778  0.44444444  0.07819471
   0.77777778  0.77777778  0.07819471
   0.22395452  0.22224735  0.15907355
   0.22293097  0.55364703  0.15799478
   0.22194191  0.89092178  0.15782950
   0.55526263  0.22142392  0.15944804
   0.55589228  0.55478119  0.15767751
   0.55579857  0.89227672  0.15821257
   0.88970756  0.22156547  0.15800966
   0.88977092  0.55518188  0.15677901
   0.88584104  0.89066892  0.15811529
  -0.00014281  0.99404625  0.23847546
   0.99474708  0.34258289  0.23806184
   0.99893912  0.66741748  0.23514715
   0.34515341  0.99214984  0.24182942
   0.30838521  0.36092760  0.24383059
   0.33380293  0.66413406  0.23601011
   0.69620709 -0.02774912  0.24335956
   0.66553654  0.33414297  0.24021794
   0.66858585  0.66532727  0.23487210
   0.10147467  0.11787361  0.28030256
   0.49805155  0.16290031  0.28815755
Direct configuration=    12
   0.00000000  0.00000000  0.00000000
   0.00000000  0.33333333  0.00000000
   0.00000000  0.66666667  0.00000000
   0.33333333  0.00000000  0.00000000
   0.33333333  0.33333333  0.00000000
   0.33333333  0.66666667  0.00000000
   0.66666667  0.00000000  0.00000000
   0.66666667  0.33333333  0.00000000
   0.66666667  0.66666667  0.00000000
   0.11111111  0.11111111  0.07819471
   0.11111111  0.44444444  0.07819471
   0.11111111  0.77777778  0.07819471
   0.44444444  0.11111111  0.07819471
   0.44444444  0.44444444  0.07819471
   0.44444444  0.77777778  0.07819471
   0.77777778  0.11111111  0.07819471
   0.77777778  0.44444444  0.07819471
   0.77777778  0.77777778  0.07819471
   0.22386937  0.22238826  0.15876417
   0.22295418  0.55354864  0.15782603
   0.22213530  0.89062000  0.15777853
   0.55521732  0.22160219  0.15869106
   0.55593496  0.55480765  0.15757156
   0.55575595  0.89185789  0.15782185
   0.88961115  0.22158505  0.15789096
   0.88965857  0.55523532  0.15681958
   0.88593470  0.89056088  0.15784947
  -0.00068110  0.99431432  0.23852965
   0.99463485  0.34262578  0.23800213
   0.99913385  0.66717848  0.23512506
   0.34582527  0.99119657  0.24141581
   0.31610812  0.35354562  0.24487762
   0.33372520  0.66396582  0.23604593
   0.68706328 -0.01878862  0.24468809
   0.66519390  0.33441027  0.24002260
   0.66829560  0.66594073  0.23488943
   0.10298181  0.11730922  0.28035886
   0.49864725  0.16256137  0.28930932
Direct configuration=    13
   0.00000000  0.00000000  0.00000000
   0.00000000  0.33333333  0.00000000
   0.00000000  0.66666667  0.00000000
   0.33333333  0.00000000  0.00000000
   0.33333333  0.33333333  0.00000000
   0.33333333  0.66666667  0.00000000
   0.66666667  0.00000000  0.00000000
   0.66666667  0.33333333  0.00000000
   0.66666667  0.66666667  0.00000000
   0.11111111  0.11111111  0.07819471
   0.11111111  0.44444444  0.07819471
   0.11111111  0.77777778  0.07819471
   0.44444444  0.11111111  0.07819471
   0.44444444  0.44444444  0.07819471
   0.44444444  0.77777778  0.07819471
   0.77777778  0.11111111  0.07819471
   0.77777778  0.44444444  0.07819471
   0.77777778  0.77777778  0.07819471
   0.22413283  0.22198727  0.15892156
   0.22285698  0.55409189  0.15759410
   0.22216785  0.89085966  0.15770051
   0.55511905  0.22180212  0.15943253
   0.55595551  0.55477659  0.15753705
   0.55542418  0.89219908  0.15809895
   0.88934607  0.22183444  0.15787278
   0.88958053  0.55518334  0.15655487
   0.88669284  0.89041182  0.15772084
   0.00159610  0.99316043  0.23828718
   0.99369018  0.34295070  0.23819887
   0.99927191  0.66668287  0.23513706
   0.34522510  0.99609827  0.24268344
   0.31524389  0.35426407  0.24343940
   0.33421372  0.66594613  0.23605687
   0.68853288 -0.02109407  0.24284027
   0.66308696  0.33175930  0.24051049
   0.66851894  0.66364825  0.23497679
   0.10247614  0.11755114  0.28019455
   0.49843921  0.16246954  0.28699864
Direct configuration=    14
   0.00000000  0.00000000  0.00000000
   0.00000000  0.33333333  0.00000000
   0.00000000  0.66666667  0.00000000
   0.33333333  0.00000000  0.00000000
   0.33333333  0.33333333  0.00000000
   0.33333333  0.66666667  0.00000000
   0.66666667  0.00000000  0.00000000
   0.66666667  0.33333333  0.00000000
   0.66666667  0.66666667  0.00000000
   0.11111111  0.11111111  0.07819471
   0.11111111  0.44444444  0.07819471
   0.11111111  0.77777778  0.07819471
   0.44444444  0.11111111  0.07819471
   0.44444444  0.44444444  0.07819471
   0.44444444  0.77777778  0.07819471
   0.77777778  0.11111111  0.07819471
   0.77777778  0.44444444  0.07819471
   0.77777778  0.77777778  0.07819471
   0.22492321  0.22078432  0.15939375
   0.22256539  0.55572166  0.15689829
   0.22226550  0.89157866  0.15746646
   0.55482424  0.22240189  0.16165696
   0.55601715  0.55468341  0.15743351
   0.55442886  0.89322267  0.15893027
   0.88855085  0.22258259  0.15781822
   0.88934641  0.55502739  0.15576075
   0.88896727  0.88996463  0.15733495
   0.00842770  0.98969877  0.23755974
   0.99085615  0.34392544  0.23878910
   0.99968607  0.66519602  0.23517307
   0.34342458  0.01080336  0.24648633
   0.31265121  0.35641940  0.23912473
   0.33567927  0.67188707  0.23608968
   0.69294170 -0.02801041  0.23729681
   0.65676612  0.32380639  0.24197414
   0.66918897  0.65677083  0.23523888
   0.10095913  0.11827689  0.27970163
   0.49781509  0.16219404  0.28006662
Direct configuration=    15
   0.00000000  0.00000000  0.00000000
   0.00000000  0.33333333  0.00000000
   0.00000000  0.66666667  0.00000000
   0.33333333  0.00000000  0.00000000
   0.33333333  0.33333333  0.00000000
   0.33333333  0.66666667  0.00000000
   0.66666667  0.00000000  0.00000000
   0.66666667  0.33333333  0.00000000
   0.66666667  0.66666667  0.00000000
   0.11111111  0.11111111  0.07819471
   0.11111111  0.44444444  0.07819471
   0.11111111  0.77777778  0.07819471
   0.44444444  0.11111111  0.07819471
   0.44444444  0.44444444  0.07819471
   0.44444444  0.77777778  0.07819471
   0.77777778  0.11111111  0.07819471
   0.77777778  0.44444444  0.07819471
   0.77777778  0.77777778  0.07819471
   0.22473076  0.22071638  0.15935746
   0.22247323  0.55617907  0.15670342
   0.22251674  0.89174273  0.15739420
   0.55478880  0.22253860  0.16164666
   0.55603170  0.55463701  0.15741416
   0.55417134  0.89302361  0.15894133
   0.88831032  0.22281037  0.15784023
   0.88929972  0.55505203  0.15571427
   0.88964390  0.88968784  0.15706899
   0.00910515  0.98901818  0.23731118
   0.98954985  0.34460831  0.23877305
   0.00009326  0.66470848  0.23514085
   0.34587447  0.01231382  0.24718299
   0.31160582  0.35801624  0.23809622
   0.33601665  0.67280307  0.23608412
   0.69280263 -0.02844053  0.23636585
   0.65569477  0.32220030  0.24240509
   0.66886740  0.65583979  0.23528977
   0.09929993  0.11878905  0.28006600
   0.49909510  0.16071574  0.27874035
Direct configuration=    16
   0.00000000  0.00000000  0.00000000
   0.00000000  0.33333333  0.00000000
   0.00000000  0.66666667  0.00000000
   0.33333333  0.00000000  0.00000000
   0.33333333  0.33333333  0.00000000
   0.33333333  0.66666667  0.00000000
   0.66666667  0.00000000  0.00000000
   0.66666667  0.33333333  0.00000000
   0.66666667  0.66666667  0.00000000
   0.11111111  0.11111111  0.07819471
   0.11111111  0.44444444  0.07819471
   0.11111111  0.77777778  0.07819471
   0.44444444  0.11111111  0.07819471
   0.44444444  0.44444444  0.07819471
   0.44444444  0.77777778  0.07819471
   0.77777778  0.11111111  0.07819471
   0.77777778  0.44444444  0.07819471
   0.77777778  0.77777778  0.07819471
   0.22435148  0.22058248  0.15928595
   0.22229162  0.55708049  0.15631938
   0.22301185  0.89206606  0.15725181
   0.55471896  0.22280800  0.16162636
   0.55606037  0.55454555  0.15737604
   0.55366383  0.89263133  0.15896313
   0.88783631  0.22325925  0.15788360
   0.88920770  0.55510058  0.15562268
   0.89097733  0.88914235  0.15654487
   0.01044022  0.98767693  0.23682132
   0.98697551  0.34595404  0.23874143
   0.00089572  0.66374767  0.23507735
   0.35070250  0.01529050  0.24855589
   0.30954566  0.36116316  0.23606931
   0.33668151  0.67460825  0.23607318
   0.69252855 -0.02928818  0.23453120
   0.65358344  0.31903515  0.24325437
   0.66823366  0.65400498  0.23539005
   0.09603010  0.11979836  0.28078408
   0.50161763  0.15780244  0.27612664
Direct configuration=    17
   0.00000000  0.00000000  0.00000000
   0.00000000  0.33333333  0.00000000
   0.00000000  0.66666667  0.00000000
   0.33333333  0.00000000  0.00000000
   0.33333333  0.33333333  0.00000000
   0.33333333  0.66666667  0.00000000
   0.66666667  0.00000000  0.00000000
   0.66666667  0.33333333  0.00000000
   0.66666667  0.66666667  0.00000000
   0.11111111  0.11111111  0.07819471
   0.11111111  0.44444444  0.07819471
   0.11111111  0.77777778  0.07819471
   0.44444444  0.11111111  0.07819471
   0.44444444  0.44444444  0.07819471
   0.44444444  0.77777778  0.07819471
   0.77777778  0.11111111  0.07819471
   0.77777778  0.44444444  0.07819471
   0.77777778  0.77777778  0.07819471
   0.22375936  0.22072484  0.15907523
   0.22219295  0.55754203  0.15612751
   0.22330452  0.89216603  0.15719165
   0.55483531  0.22283432  0.16087698
   0.55605216  0.55443199  0.15737781
   0.55350657  0.89198821  0.15867268
   0.88767132  0.22335847  0.15794569
   0.88916133  0.55525219  0.15577973
   0.89145194  0.88880259  0.15619452
   0.01002157  0.98805367  0.23672076
   0.98653666  0.34536502  0.23870119
   0.00065729  0.66418364  0.23500914
   0.35200493  0.01481621  0.24899069
   0.30945251  0.36197738  0.23586491
   0.33675283  0.67456159  0.23605148
   0.69373876 -0.03045333  0.23423529
   0.65368146  0.31858282  0.24362459
   0.66757615  0.65460832  0.23539832
   0.09516877  0.11992157  0.28094585
   0.50167380  0.15819679  0.27594003
Direct configuration=    18
   0.00000000  0.00000000  0.00000000
   0.00000000  0.33333333  0.00000000
   0.00000000  0.66666667  0.00000000
   0.33333333  0.00000000  0.00000000
   0.33333333  0.33333333  0.00000000
   0.33333333  0.66666667  0.00000000
   0.66666667  0.00000000  0.00000000
   0.66666667  0.33333333  0.00000000
   0.66666667  0.66666667  0.00000000
   0.11111111  0.11111111  0.07819471
   0.11111111  0.44444444  0.07819471
   0.11111111  0.77777778  0.07819471
   0.44444444  0.11111111  0.07819471
   0.44444444  0.44444444  0.07819471
   0.44444444  0.77777778  0.07819471
   0.77777778  0.11111111  0.07819471
   0.77777778  0.44444444  0.07819471
   0.77777778  0.77777778  0.07819471
   0.22198298  0.22115191  0.15844309
   0.22189694  0.55892665  0.15555189
   0.22418252  0.89246596  0.15701120
   0.55518436  0.22291329  0.15862883
   0.55602753  0.55409131  0.15738313
   0.55303479  0.89005886  0.15780134
   0.88717634  0.22365611  0.15813196
   0.88902221  0.55570702  0.15625088
   0.89287577  0.88778331  0.15514349
   0.00876563  0.98918388  0.23641909
   0.98522013  0.34359796  0.23858046
  -0.00005802  0.66549153  0.23480451
   0.35591220  0.01339332  0.25029509
   0.30917306  0.36442005  0.23525171
   0.33696679  0.67442161  0.23598636
   0.69736940 -0.03394878  0.23334758
   0.65397552  0.31722584  0.24473528
   0.66560360  0.65641837  0.23542314
   0.09258475  0.12029120  0.28143114
   0.50184230  0.15937985  0.27538018
Direct configuration=    19
   0.00000000  0.00000000  0.00000000
   0.00000000  0.33333333  0.00000000
   0.00000000  0.66666667  0.00000000
   0.33333333  0.00000000  0.00000000
   0.33333333  0.33333333  0.00000000
   0.33333333  0.66666667  0.00000000
   0.66666667  0.00000000  0.00000000
   0.66666667  0.33333333  0.00000000
   0.66666667  0.66666667  0.00000000
   0.11111111  0.11111111  0.07819471
   0.11111111  0.44444444  0.07819471
   0.11111111  0.77777778  0.07819471
   0.44444444  0.11111111  0.07819471
   0.44444444  0.44444444  0.07819471
   0.44444444  0.77777778  0.07819471
   0.77777778  0.11111111  0.07819471
   0.77777778  0.44444444  0.07819471
   0.77777778  0.77777778  0.07819471
   0.22159884  0.22147909  0.15827241
   0.22193051  0.55920953  0.15541733
   0.22419246  0.89257711  0.15700102
   0.55523355  0.22256906  0.15779081
   0.55609663  0.55375093  0.15743047
   0.55302713  0.88974341  0.15746560
   0.88690899  0.22365238  0.15818682
   0.88894774  0.55580655  0.15647322
   0.89313406  0.88765625  0.15482345
   0.00854827  0.98985325  0.23634115
   0.98526648  0.34292900  0.23850683
   0.00055124  0.66487913  0.23468375
   0.35521932  0.01345963  0.25096574
   0.30998044  0.36372427  0.23518926
   0.33652190  0.67451742  0.23593838
   0.69564680 -0.03203177  0.23336253
   0.65402632  0.31658796  0.24509785
   0.66519464  0.65709870  0.23541157
   0.09323600  0.11942664  0.28134228
   0.50323025  0.15949891  0.27506192
Direct configuration=    20
   0.00000000  0.00000000  0.00000000
   0.00000000  0.33333333  0.00000000
   0.00000000  0.66666667  0.00000000
   0.33333333  0.00000000  0.00000000
   0.33333333  0.33333333  0.00000000
   0.33333333  0.66666667  0.00000000
   0.66666667  0.00000000  0.00000000
   0.66666667  0.33333333  0.00000000
   0.66666667  0.66666667  0.00000000
   0.11111111  0.11111111  0.07819471
   0.11111111  0.44444444  0.07819471
   0.11111111  0.77777778  0.07819471
   0.44444444  0.11111111  0.07819471
   0.44444444  0.44444444  0.07819471
   0.44444444  0.77777778  0.07819471
   0.77777778  0.11111111  0.07819471
   0.77777778  0.44444444  0.07819471
   0.77777778  0.77777778  0.07819471
   0.22128537  0.22174608  0.15813313
   0.22195790  0.55944037  0.15530752
   0.22420057  0.89266781  0.15699272
   0.55527368  0.22228815  0.15710693
   0.55615302  0.55347316  0.15746910
   0.55302089  0.88948598  0.15719162
   0.88669083  0.22364934  0.15823158
   0.88888696  0.55588778  0.15665465
   0.89334483  0.88755257  0.15456229
   0.00837089  0.99039948  0.23627754
   0.98530430  0.34238310  0.23844675
   0.00104844  0.66437938  0.23458520
   0.35465390  0.01351373  0.25151301
   0.31063930  0.36315648  0.23513830
   0.33615884  0.67459561  0.23589923
   0.69424106 -0.03046738  0.23337474
   0.65406777  0.31606742  0.24539372
   0.66486091  0.65765389  0.23540212
   0.09376745  0.11872112  0.28126978
   0.50436289  0.15959607  0.27480220
Direct configuration=    21
   0.00000000  0.00000000  0.00000000
   0.00000000  0.33333333  0.00000000
   0.00000000  0.66666667  0.00000000
   0.33333333  0.00000000  0.00000000
   0.33333333  0.33333333  0.00000000
   0.33333333  0.66666667  0.00000000
   0.66666667  0.00000000  0.00000000
   0.66666667  0.33333333  0.00000000
   0.66666667  0.66666667  0.00000000