   38   38  150    1
  0.3386168E+02  0.7529542E-09  0.7529542E-09  0.2620742E-08  0.5000000E-15
  1.000000000000000E-004
  CAR 
 unknown system                          
    620      7    372
 
  0.0000000E+00  0.0000000E+00  0.0000000E+00  0.6250000E-01
    1      -71.606638
    2      -71.591699
    3      -71.556724
    4      -71.423346
    5      -71.402940
    6      -71.319280
    7      -71.315288
    8      -71.306871
    9      -71.300398
   10      -71.277599
   11      -71.181021
   12      -71.164854
   13      -71.157160
   14      -71.137453
   15      -71.093426
   16      -71.086131
   17      -71.060589
   18      -71.018047
   19      -71.008254
   20      -71.004819
   21      -71.001472
   22      -70.996316
   23      -70.995267
   24      -70.987092
   25      -70.984837
   26      -70.983763
   27      -70.982197
   28      -70.980469
   29      -70.979396
   30      -70.979144
   31      -70.975118
   32      -70.958070
   33      -70.954512
   34      -70.946490
   35      -70.944139
   36      -70.939986
   37      -70.939703
   38      -70.937974
   39      -70.937817
   40      -70.934519
   41      -70.934306
   42      -70.931763
   43      -70.929195
   44      -70.928817
   45      -70.926320
   46      -70.923176
   47      -70.912563
   48      -70.911333
   49      -70.909488
   50      -70.909184
   51      -70.906607
   52      -70.904342
   53      -70.896656
   54      -70.895565
   55      -70.886622
   56      -70.883194
   57      -70.881161
   58      -70.866479
   59      -70.853347
   60      -70.845763
   61      -70.833722
   62      -70.829924
   63      -70.826284
   64      -70.806013
   65      -70.785798
   66      -70.784784
   67      -70.771690
   68      -70.769405
   69      -70.760504
   70      -70.757302
   71      -70.738744
   72      -70.736701
   73      -70.734065
   74      -70.732983
   75      -70.731863
   76      -70.730525
   77      -70.726583
   78      -70.726416
   79      -70.723081
   80      -70.722189
   81      -70.718139
   82      -70.715854
   83      -70.680151
   84      -70.676617
   85      -70.674737
   86      -70.669888
   87      -70.667900
   88      -70.667347
   89      -70.665317
   90      -70.653115
   91      -70.651003
   92      -70.626906
   93      -70.623190
   94      -70.621198
   95      -70.617971
   96      -70.614399
   97      -70.613842
   98      -70.611976
   99      -70.610844
  100      -70.609705
  101      -70.602892
  102      -70.558186
  103      -70.550855
  104      -70.548738
  105      -70.492806
  106      -70.485241
  107      -70.451226
  108      -70.450604
  109      -12.452246
  110      -11.603972
  111      -10.023415
  112       -8.512600
  113       -7.183087
  114       -7.142032
  115       -7.024472
  116       -7.000795
  117       -6.989683
  118       -6.945774
  119       -6.878307
  120       -6.658822
  121       -6.526196
  122       -6.345530
  123       -6.336452
  124       -6.227351
  125       -6.158950
  126       -6.037187
  127       -5.968313
  128       -5.792542
  129       -5.766137
  130       -5.728022
  131       -5.572301
  132       -5.452605
  133       -5.407079
  134       -5.321508
  135       -5.314527
  136       -5.302744
  137       -5.283971
  138       -5.195784
  139       -5.182707
  140       -5.146813
  141       -5.140365
  142       -5.137972
  143       -5.118729
  144       -5.072397
  145       -5.038511
  146       -4.995764
  147       -4.991204
  148       -4.982642
  149       -4.962969
  150       -4.958477
  151       -4.934865
  152       -4.934490
  153       -4.911614
  154       -4.905358
  155       -4.876693
  156       -4.867826
  157       -4.793630
  158       -4.755855
  159       -4.752510
  160       -4.734615
  161       -4.714934
  162       -4.712141
  163       -4.705380
  164       -4.636833
  165       -4.612928
  166       -4.591950
  167       -4.568720
  168       -4.494120
  169       -4.487500
  170       -4.416169
  171       -4.377844
  172       -4.354537
  173       -4.343002
  174       -4.295824
  175       -4.269886
  176       -4.237882
  177       -4.234822
  178       -4.218014
  179       -4.196206
  180       -4.155110
  181       -4.138622
  182       -4.136219
  183       -4.132213
  184       -4.113373
  185       -4.100640
  186       -4.069730
  187       -4.045312
  188       -4.033083
  189       -4.022036
  190       -4.010818
  191       -3.968197
  192       -3.967094
  193       -3.951095
  194       -3.947081
  195       -3.934287
  196       -3.911472
  197       -3.896405
  198       -3.863579
  199       -3.853903
  200       -3.817927
  201       -3.814879
  202       -3.788555
  203       -3.780986
  204       -3.763526
  205       -3.757166
  206       -3.746622
  207       -3.725743
  208       -3.723080
  209       -3.715166
  210       -3.711423
  211       -3.706855
  212       -3.704161
  213       -3.691026
  214       -3.685387
  215       -3.668210
  216       -3.662940
  217       -3.662437
  218       -3.643144
  219       -3.627358
  220       -3.589894
  221       -3.588791
  222       -3.551185
  223       -3.519265
  224       -3.517364
  225       -3.417992
  226       -3.370591
  227       -3.361796
  228       -3.352840
  229       -3.316769
  230       -3.298415
  231       -3.278039
  232       -3.274942
  233       -3.268304
  234       -3.263039
  235       -3.256350
  236       -3.235959
  237       -3.232864
  238       -3.226133
  239       -3.174651
  240       -3.151278
  241       -3.138550
  242       -3.117521
  243       -3.114739
  244       -3.103952
  245       -3.087038
  246       -3.061435
  247       -3.059701
  248       -3.046263
  249       -3.044412
  250       -3.029622
  251       -3.007177
  252       -2.984369
  253       -2.962940
  254       -2.952763
  255       -2.944238
  256       -2.941134
  257       -2.928892
  258       -2.892412
  259       -2.882826
  260       -2.841610
  261       -2.837720
  262       -2.837139
  263       -2.834950
  264       -2.803366
  265       -2.798920
  266       -2.788801
  267       -2.775026
  268       -2.769641
  269       -2.759875
  270       -2.757828
  271       -2.754018
  272       -2.742140
  273       -2.732439
  274       -2.715686
  275       -2.713038
  276       -2.690577
  277       -2.688766
  278       -2.674403
  279       -2.668845
  280       -2.663034
  281       -2.646373
  282       -2.640767
  283       -2.631644
  284       -2.618809
  285       -2.612228
  286       -2.611895
  287       -2.611420
  288       -2.603263
  289       -2.601522
  290       -2.598110
  291       -2.594169
  292       -2.589658
  293       -2.572388
  294       -2.570676
  295       -2.564814
  296       -2.545960
  297       -2.520571
  298       -2.517348
  299       -2.484715
  300       -2.482062
  301       -2.473088
  302       -2.465122
  303       -2.462036
  304       -2.441068
  305       -2.399104
  306       -1.818696
  307       -1.811123
  308       -1.731758
  309       -1.626039
  310       -1.583694
  311       -1.413268
  312       -1.166121
  313       -0.381659
  314       -0.277247
  315       -0.112112
  316        0.144415
  317        0.245110
  318        0.706882
  319        0.956818
  320        1.301132
  321        1.435467
  322        1.965057
  323        2.180500
  324        2.662036
  325        2.732748
  326        2.904536
  327        2.942299
  328        2.982509
  329        2.984682
  330        3.150260
  331        3.433793
  332        3.469413
  333        3.564354
  334        3.648689
  335        3.776777
  336        3.784412
  337        4.001172
  338        4.154530
  339        4.167421
  340        4.267237
  341        4.398670
  342        4.563970
  343        4.783523
  344        4.934923
  345        5.082302
  346        5.104756
  347        5.248802
  348        5.283448
  349        5.725520
  350        5.771016
  351        5.889971
  352        6.065275
  353        6.088182
  354        6.120269
  355        6.139398
  356        6.298863
  357        6.431898
  358        6.664103
  359        6.804709
  360        6.842598
  361        6.884039
  362        6.895152
  363        6.982609
  364        7.119156
  365        7.216736
  366        7.224640
  367        7.276493
  368        7.281270
  369        7.316931
  370        7.326308
  371        7.374386
  372        7.553777
 
  0.2500000E+00  0.5551115E-16  0.0000000E+00  0.1250000E+00
    1      -71.606525
    2      -71.591557
    3      -71.556511
    4      -71.423147
    5      -71.402804
    6      -71.319282
    7      -71.315201
    8      -71.306722
    9      -71.300244
   10      -71.277293
   11      -71.180874
   12      -71.164736
   13      -71.157017
   14      -71.137243
   15      -71.093287
   16      -71.086035
   17      -71.060351
   18      -71.017933
   19      -71.012555
   20      -71.008721
   21      -71.007940
   22      -71.002113
   23      -71.000226
   24      -70.988881
   25      -70.981513
   26      -70.981252
   27      -70.978388
   28      -70.978334
   29      -70.969505
   30      -70.966966
   31      -70.963306
   32      -70.958248
   33      -70.954637
   34      -70.947115
   35      -70.945259
   36      -70.942193
   37      -70.940362
   38      -70.939725
   39      -70.938477
   40      -70.935170
   41      -70.934857
   42      -70.933762
   43      -70.931182
   44      -70.927816
   45      -70.926634
   46      -70.923037
   47      -70.916060
   48      -70.914554
   49      -70.911907
   50      -70.910258
   51      -70.904783
   52      -70.904419
   53      -70.894653
   54      -70.894627
   55      -70.885227
   56      -70.880475
   57      -70.877660
   58      -70.866664
   59      -70.856220
   60      -70.843670
   61      -70.835685
   62      -70.829620
   63      -70.825392
   64      -70.803508
   65      -70.786610
   66      -70.783682
   67      -70.771685
   68      -70.769382
   69      -70.761180
   70      -70.757352
   71      -70.745620
   72      -70.741528
   73      -70.740015
   74      -70.738637
   75      -70.737131
   76      -70.732984
   77      -70.732695
   78      -70.720041
   79      -70.715415
   80      -70.709477
   81      -70.703935
   82      -70.702162
   83      -70.682967
   84      -70.680367
   85      -70.674479
   86      -70.672926
   87      -70.667628
   88      -70.667095
   89      -70.665220
   90      -70.656999
   91      -70.653845
   92      -70.626495
   93      -70.623149
   94      -70.620767
   95      -70.617857
   96      -70.614520
   97      -70.614186
   98      -70.611166
   99      -70.610918
  100      -70.609685
  101      -70.602841
  102      -70.558076
  103      -70.550783
  104      -70.548804
  105      -70.492581
  106      -70.485134
  107      -70.451146
  108      -70.450480
  109      -12.406321
  110      -11.662595
  111       -9.799133
  112       -8.320532
  113       -8.133505
  114       -7.516380
  115       -7.407987
  116       -7.086217
  117       -6.794214
  118       -6.741354
  119       -6.529420
  120       -6.418939
  121       -6.371758
  122       -6.278414
  123       -6.188669
  124       -6.085901
  125       -6.061144
  126       -6.010731
  127       -5.834044
  128       -5.779996
  129       -5.776070
  130       -5.670361
  131       -5.602439
  132       -5.436800
  133       -5.394414
  134       -5.385631
  135       -5.345943
  136       -5.308349
  137       -5.268327
  138       -5.262329
  139       -5.250977
  140       -5.241559
  141       -5.205816
  142       -5.175877
  143       -5.163847
  144       -5.157672
  145       -5.102009
  146       -5.097313
  147       -5.049092
  148       -5.015963
  149       -5.005635
  150       -4.962385
  151       -4.946550
  152       -4.922316
  153       -4.871101
  154       -4.869361
  155       -4.820770
  156       -4.814766
  157       -4.787321
  158       -4.771669
  159       -4.748595
  160       -4.723380
  161       -4.694404
  162       -4.644611
  163       -4.639857
  164       -4.604865
  165       -4.590721
  166       -4.554396
  167       -4.503512
  168       -4.500157
  169       -4.470260
  170       -4.460843
  171       -4.412841
  172       -4.407487
  173       -4.365727
  174       -4.341810
  175       -4.341574
  176       -4.300383
  177       -4.262915
  178       -4.254889
  179       -4.224141
  180       -4.219055
  181       -4.184323
  182       -4.163852
  183       -4.152219
  184       -4.125663
  185       -4.109705
  186       -4.078483
  187       -4.071980
  188       -4.040282
  189       -4.012710
  190       -3.998141
  191       -3.978701
  192       -3.964909
  193       -3.962856
  194       -3.943716
  195       -3.917250
  196       -3.914556
  197       -3.889477
  198       -3.880362
  199       -3.858436
  200       -3.854487
  201       -3.830210
  202       -3.827169
  203       -3.817300
  204       -3.811279
  205       -3.790914
  206       -3.777309
  207       -3.771552
  208       -3.763625
  209       -3.749965
  210       -3.741978
  211       -3.736486
  212       -3.711570
  213       -3.711292
  214       -3.699025
  215       -3.681880
  216       -3.648654
  217       -3.631998
  218       -3.611254
  219       -3.607108
  220       -3.595057
  221       -3.591416
  222       -3.588261
  223       -3.581622
  224       -3.546062
  225       -3.528672
  226       -3.512251
  227       -3.479138
  228       -3.453537
  229       -3.397930
  230       -3.366580
  231       -3.356350
  232       -3.335464
  233       -3.320602
  234       -3.316658
  235       -3.282340
  236       -3.266891
  237       -3.262804
  238       -3.235662
  239       -3.221289
  240       -3.193420
  241       -3.183043
  242       -3.172837
  243       -3.160366
  244       -3.130624
  245       -3.126307
  246       -3.095482
  247       -3.079059
  248       -3.075427
  249       -3.053079
  250       -3.037488
  251       -3.018897
  252       -3.009687
  253       -3.006960
  254       -2.996918
  255       -2.986001
  256       -2.966163
  257       -2.955924
  258       -2.930175
  259       -2.921326
  260       -2.900471
  261       -2.876209
  262       -2.857612
  263       -2.834426
  264       -2.827878
  265       -2.819196
  266       -2.795701
  267       -2.782215
  268       -2.770569
  269       -2.768529
  270       -2.746946
  271       -2.738282
  272       -2.717830
  273       -2.709076
  274       -2.692860
  275       -2.692080
  276       -2.650027
  277       -2.642983
  278       -2.631569
  279       -2.629384
  280       -2.610171
  281       -2.598414
  282       -2.592440
  283       -2.578307
  284       -2.570326
  285       -2.551221
  286       -2.542156
  287       -2.535496
  288       -2.525137
  289       -2.522666
  290       -2.515712
  291       -2.509799
  292       -2.496496
  293       -2.477382
  294       -2.462207
  295       -2.447534
  296       -2.437175
  297       -2.420753
  298       -2.380250
  299       -2.355356
  300       -2.313515
  301       -2.198197
  302       -2.129691
  303       -2.000330
  304       -1.964713
  305       -1.907768
  306       -1.868093
  307       -1.695676
  308       -1.591736
  309       -1.240773
  310       -1.068135
  311       -0.997819
  312       -0.815266
  313       -0.469333
  314       -0.415220
  315       -0.144144
  316        0.296694
  317        0.308867
  318        0.647102
  319        0.752954
  320        0.833726
  321        1.002971
  322        1.318229
  323        1.372579
  324        1.859573
  325        1.900271
  326        2.011060
  327        2.224541
  328        2.625766
  329        2.769900
  330        3.023778
  331        3.167335
  332        3.424613
  333        3.575356
  334        3.739156
  335        3.782524
  336        3.937940
  337        3.991746
  338        4.310711
  339        4.532628
  340        4.547547
  341        4.747698
  342        4.755067
  343        4.871731
  344        5.063577
  345        5.205775
  346        5.330428
  347        5.417281
  348        5.454926
  349        5.579286
  350        5.583575
  351        5.692191
  352        5.754949
  353        5.825816
  354        5.982293
  355        6.056574
  356        6.197355
  357        6.305151
  358        6.390742
  359        6.447952
  360        6.467768
  361        6.485836
  362        6.603067
  363        6.732335
  364        6.788765
  365        7.029966
  366        7.109297
  367        7.202853
  368        7.217495
  369        7.258858
  370        7.337237
  371        7.542826
  372        7.600386
 
  0.5000000E+00  0.1110223E-15  0.0000000E+00  0.6250000E-01
    1      -71.606611
    2      -71.591591
    3      -71.556639
    4      -71.423217
    5      -71.402886
    6      -71.319567
    7      -71.315276
    8      -71.306791
    9      -71.300276
   10      -71.277185
   11      -71.181045
   12      -71.164660
   13      -71.157116
   14      -71.137371
   15      -71.093292
   16      -71.085978
   17      -71.060437
   18      -71.018013
   19      -71.017383
   20      -71.011652
   21      -71.010433
   22      -71.006040
   23      -71.003845
   24      -70.989415
   25      -70.981233
   26      -70.979859
   27      -70.975943
   28      -70.974006
   29      -70.959684
   30      -70.957352
   31      -70.955061
   32      -70.954670
   33      -70.951405
   34      -70.949232
   35      -70.947614
   36      -70.946176
   37      -70.941839
   38      -70.940781
   39      -70.939851
   40      -70.937780
   41      -70.935540
   42      -70.934555
   43      -70.932744
   44      -70.929416
   45      -70.925552
   46      -70.924918
   47      -70.923086
   48      -70.917661
   49      -70.913239
   50      -70.910838
   51      -70.905600
   52      -70.903838
   53      -70.893935
   54      -70.893155
   55      -70.884413
   56      -70.877004
   57      -70.872229
   58      -70.867267
   59      -70.861175
   60      -70.842492
   61      -70.837491
   62      -70.829317
   63      -70.824873
   64      -70.801121
   65      -70.787789
   66      -70.782746
   67      -70.771927
   68      -70.769474
   69      -70.762202
   70      -70.757617
   71      -70.751461
   72      -70.745125
   73      -70.742010
   74      -70.741573
   75      -70.741179
   76      -70.736689
   77      -70.733297
   78      -70.714317
   79      -70.711141
   80      -70.694678
   81      -70.693743
   82      -70.691081
   83      -70.688543
   84      -70.682927
   85      -70.676018
   86      -70.675554
   87      -70.672244
   88      -70.667129
   89      -70.665706
   90      -70.665243
   91      -70.655581
   92      -70.626373
   93      -70.623076
   94      -70.620550
   95      -70.618018
   96      -70.615031
   97      -70.613950
   98      -70.610867
   99      -70.610516
  100      -70.609656
  101      -70.602748
  102      -70.558005
  103      -70.550987
  104      -70.549180
  105      -70.492758
  106      -70.485253
  107      -70.451141
  108      -70.450365
  109      -12.352979
  110      -11.727504
  111       -9.192622
  112       -9.104236
  113       -7.859997
  114       -7.673578
  115       -7.671184
  116       -7.490958
  117       -6.825105
  118       -6.769312
  119       -6.383699
  120       -6.306384
  121       -6.183891
  122       -6.003174
  123       -5.989010
  124       -5.913421
  125       -5.802577
  126       -5.797824
  127       -5.749723
  128       -5.746643
  129       -5.718005
  130       -5.705289
  131       -5.683339
  132       -5.568713
  133       -5.533849
  134       -5.530822
  135       -5.478602
  136       -5.449434
  137       -5.386346
  138       -5.360723
  139       -5.317872
  140       -5.287461
  141       -5.232892
  142       -5.188645
  143       -5.178272
  144       -5.127848
  145       -5.116161
  146       -5.097307
  147       -5.064123
  148       -5.047746
  149       -5.038395
  150       -4.955691
  151       -4.940459
  152       -4.923388
  153       -4.912399
  154       -4.868697
  155       -4.830035
  156       -4.807518
  157       -4.783485
  158       -4.752807
  159       -4.743077
  160       -4.677407
  161       -4.668506
  162       -4.658215
  163       -4.621370
  164       -4.612096
  165       -4.562769
  166       -4.542103
  167       -4.499024
  168       -4.459374
  169       -4.458136
  170       -4.405723
  171       -4.401001
  172       -4.391580
  173       -4.369070
  174       -4.363064
  175       -4.344781
  176       -4.330137
  177       -4.303771
  178       -4.283143
  179       -4.241841
  180       -4.215387
  181       -4.213137
  182       -4.174178
  183       -4.165601
  184       -4.164195
  185       -4.131392
  186       -4.115767
  187       -4.114338
  188       -4.113363
  189       -4.083603
  190       -4.070875
  191       -4.039241
  192       -4.026350
  193       -3.997161
  194       -3.986000
  195       -3.971792
  196       -3.947791
  197       -3.943579
  198       -3.915678
  199       -3.894956
  200       -3.887493
  201       -3.853365
  202       -3.849757
  203       -3.837426
  204       -3.809603
  205       -3.803868
  206       -3.802187
  207       -3.793117
  208       -3.759356
  209       -3.742202
  210       -3.725479
  211       -3.706057
  212       -3.698561
  213       -3.692685
  214       -3.686993
  215       -3.660388
  216       -3.644825
  217       -3.627644
  218       -3.622045
  219       -3.587776
  220       -3.587573
  221       -3.572356
  222       -3.562426
  223       -3.533252
  224       -3.517259
  225       -3.466404
  226       -3.465055
  227       -3.453244
  228       -3.443162
  229       -3.439314
  230       -3.417417
  231       -3.411280
  232       -3.376038
  233       -3.364840
  234       -3.364186
  235       -3.360100
  236       -3.336739
  237       -3.325413
  238       -3.303200
  239       -3.291677
  240       -3.282780
  241       -3.253640
  242       -3.240608
  243       -3.207835
  244       -3.167551
  245       -3.150950
  246       -3.130135
  247       -3.122503
  248       -3.105909
  249       -3.081649
  250       -3.070508
  251       -3.043522
  252       -3.031608
  253       -3.028050
  254       -3.000632
  255       -2.998475
  256       -2.971232
  257       -2.970543
  258       -2.933262
  259       -2.917836
  260       -2.883986
  261       -2.879265
  262       -2.875689
  263       -2.857883
  264       -2.845660
  265       -2.840475
  266       -2.816532
  267       -2.808747
  268       -2.802478
  269       -2.796692
  270       -2.771728
  271       -2.735029
  272       -2.721494
  273       -2.707481
  274       -2.679369
  275       -2.656483
  276       -2.644260
  277       -2.632928
  278       -2.615467
  279       -2.610649
  280       -2.592371
  281       -2.569622
  282       -2.561991
  283       -2.556037
  284       -2.542755
  285       -2.539153
  286       -2.516308
  287       -2.501592
  288       -2.490907
  289       -2.473176
  290       -2.466619
  291       -2.465989
  292       -2.452169
  293       -2.400939
  294       -2.397137
  295       -2.373193
  296       -2.373052
  297       -2.339818
  298       -2.325882
  299       -2.217582
  300       -2.163782
  301       -1.974597
  302       -1.963339
  303       -1.439580
  304       -1.348322
  305       -1.296201
  306       -1.087552
  307       -1.032539
  308       -0.961122
  309       -0.912805
  310       -0.821983
  311       -0.721080
  312       -0.577551
  313       -0.552062
  314       -0.445993
  315       -0.295101
  316       -0.055416
  317        0.187152
  318        0.219357
  319        0.346192
  320        0.549429
  321        0.606628
  322        0.663263
  323        0.821016
  324        0.992127
  325        1.504417
  326        1.706077
  327        2.106151
  328        2.252412
  329        2.513257
  330        2.664826
  331        2.774293
  332        3.300986
  333        3.353329
  334        3.663442
  335        3.692412
  336        3.836082
  337        4.282649
  338        4.353835
  339        4.427508
  340        4.433321
  341        4.631298
  342        4.632459
  343        4.680228
  344        4.813031
  345        5.059203
  346        5.235746
  347        5.319972
  348        5.448030
  349        5.451261
  350        5.583398
  351        5.596009
  352        5.632163
  353        5.719690
  354        5.727761
  355        6.015862
  356        6.192121
  357        6.269768
  358        6.468370
  359        6.491311
  360        6.596027
  361        6.625816
  362        6.811420
  363        6.889978
  364        6.917242
  365        6.960585
  366        7.024316
  367        7.039511
  368        7.174730
  369        7.185846
  370        7.257336
  371        7.584630
  372        7.812487
 
  0.0000000E+00  0.2500000E+00  0.0000000E+00  0.2500000E+00
    1      -71.606949
    2      -71.591087
    3      -71.556569
    4      -71.423341
    5      -71.402669
    6      -71.318890
    7      -71.315487
    8      -71.306712
    9      -71.300177
   10      -71.277331
   11      -71.181784
   12      -71.164784
   13      -71.155816
   14      -71.137273
   15      -71.094090
   16      -71.084164
   17      -71.061696
   18      -71.019139
   19      -71.017922
   20      -71.006745
   21      -71.004218
   22      -71.001382
   23      -70.993247
   24      -70.990401
   25      -70.986295
   26      -70.981316
   27      -70.979120
   28      -70.976075
   29      -70.971564
   30      -70.967662
   31      -70.962991
   32      -70.957574
   33      -70.955111
   34      -70.949874
   35      -70.944722
   36      -70.940848
   37      -70.940208
   38      -70.940028
   39      -70.938062
   40      -70.935242
   41      -70.934352
   42      -70.932456
   43      -70.931275
   44      -70.929613
   45      -70.928099
   46      -70.920755
   47      -70.916585
   48      -70.914222
   49      -70.911411
   50      -70.910359
   51      -70.905458
   52      -70.902275
   53      -70.896276
   54      -70.894234
   55      -70.885264
   56      -70.881166
   57      -70.877431
   58      -70.866440
   59      -70.854957
   60      -70.844164
   61      -70.834761
   62      -70.829697
   63      -70.827489
   64      -70.803672
   65      -70.785311
   66      -70.784423
   67      -70.771507
   68      -70.770204
   69      -70.760804
   70      -70.757076
   71      -70.748991
   72      -70.742133
   73      -70.739049
   74      -70.737090
   75      -70.734118
   76      -70.733915
   77      -70.731053
   78      -70.721060
   79      -70.714017
   80      -70.710693
   81      -70.704983
   82      -70.701953
   83      -70.683669
   84      -70.678955
   85      -70.677713
   86      -70.672242
   87      -70.668443
   88      -70.667174
   89      -70.662783
   90      -70.658487
   91      -70.652613
   92      -70.626376
   93      -70.623421
   94      -70.620886
   95      -70.617490
   96      -70.615232
   97      -70.613409
   98      -70.611586
   99      -70.610887
  100      -70.609591
  101      -70.602828
  102      -70.558081
  103      -70.550758
  104      -70.548603
  105      -70.492664
  106      -70.485086
  107      -70.451131
  108      -70.450496
  109      -12.420321
  110      -11.634431
  111       -9.805189
  112       -8.365210
  113       -8.139674
  114       -7.465887
  115       -7.419894
  116       -7.074318
  117       -6.972177
  118       -6.612388
  119       -6.500681
  120       -6.385728
  121       -6.361326
  122       -6.288863
  123       -6.165972
  124       -6.096809
  125       -6.023337
  126       -5.980369
  127       -5.902556
  128       -5.785210
  129       -5.765524
  130       -5.695537
  131       -5.545718
  132       -5.470852
  133       -5.399313
  134       -5.375935
  135       -5.338367
  136       -5.300070
  137       -5.277648
  138       -5.268942
  139       -5.246161
  140       -5.233692
  141       -5.223738
  142       -5.195915
  143       -5.177479
  144       -5.141867
  145       -5.124744
  146       -5.082869
  147       -5.057009
  148       -5.047561
  149       -5.012415
  150       -4.989823
  151       -4.955998
  152       -4.926793
  153       -4.910053
  154       -4.865813
  155       -4.837822
  156       -4.794238
  157       -4.785052
  158       -4.755021
  159       -4.734844
  160       -4.714238
  161       -4.684645
  162       -4.657797
  163       -4.615475
  164       -4.597105
  165       -4.585062
  166       -4.549494
  167       -4.510530
  168       -4.481399
  169       -4.469505
  170       -4.447555
  171       -4.434068
  172       -4.411018
  173       -4.383714
  174       -4.352014
  175       -4.332061
  176       -4.303726
  177       -4.264245
  178       -4.229937
  179       -4.221623
  180       -4.198598
  181       -4.187473
  182       -4.163333
  183       -4.146350
  184       -4.128222
  185       -4.102600
  186       -4.091321
  187       -4.056058
  188       -4.040272
  189       -4.024455
  190       -4.015643
  191       -3.980716
  192       -3.970225
  193       -3.962221
  194       -3.949404
  195       -3.925626
  196       -3.909894
  197       -3.895996
  198       -3.886308
  199       -3.882236
  200       -3.842065
  201       -3.837508
  202       -3.828346
  203       -3.818582
  204       -3.803647
  205       -3.797735
  206       -3.781030
  207       -3.766495
  208       -3.755169
  209       -3.750348
  210       -3.741280
  211       -3.736609
  212       -3.724635
  213       -3.700804
  214       -3.684832
  215       -3.672608
  216       -3.641521
  217       -3.634843
  218       -3.607933
  219       -3.602562
  220       -3.594471
  221       -3.591580
  222       -3.583527
  223       -3.571682
  224       -3.536827
  225       -3.529761
  226       -3.512618
  227       -3.464471