PROCAR new format
# of k-points:    7         # of bands: 372         # of ions:  38

 k-point    1 :    0.00000000 0.00000000 0.00000000     weight = 0.06250000

band   1 # energy  -71.60663843 # occ.  2.00000000
 
ion      s      p      d    tot
  1  0.000  0.000  0.000  0.000
  2  0.000  0.000  0.000  0.000
  3  0.000  0.000  0.000  0.000
  4  0.000  0.000  0.000  0.000
  5  0.000  0.000  0.000  0.000
  6  0.000  0.000  0.000  0.000
  7  0.000  0.000  0.000  0.000
  8  0.000  0.000  0.000  0.000
  9  0.000  0.000  0.000  0.000
 10  0.000  0.000  0.000  0.000
 11  0.000  0.000  0.000  0.000
 12  0.000  0.000  0.000  0.000
 13  0.000  0.000  0.000  0.000
 14  0.000  0.000  0.000  0.000
 15  0.000  0.000  0.000  0.000
 16  0.000  0.000  0.000  0.000
 17  0.000  0.000  0.000  0.000
 18  0.000  0.000  0.000  0.000
 19  0.000  0.000  0.000  0.000
 20  0.000  0.000  0.000  0.000
 21  0.000  0.000  0.000  0.000
 22  0.000  0.000  0.000  0.000
 23  0.000  0.000  0.000  0.000
 24  0.000  0.000  0.000  0.000
 25  0.000  0.000  0.000  0.000
 26  0.000  0.000  0.000  0.000
 27  0.000  0.000  0.000  0.000
 28  0.000  0.000  0.000  0.000
 29  0.000  0.000  0.000  0.000
 30  0.000  0.001  0.000  0.001
 31  0.000  0.121  0.000  0.121
 32  0.000  0.000  0.000  0.000
 33  0.000  0.000  0.000  0.000
 34  0.000  0.435  0.000  0.435
 35  0.000  0.000  0.000  0.000
 36  0.000  0.438  0.000  0.438
 37  0.000  0.000  0.000  0.000
 38  0.000  0.000  0.000  0.000
tot  0.000  0.996  0.000  0.996
 
band   2 # energy  -71.59169933 # occ.  2.00000000
 
ion      s      p      d    tot
  1  0.000  0.000  0.000  0.000
  2  0.000  0.000  0.000  0.000
  3  0.000  0.000  0.000  0.000
  4  0.000  0.000  0.000  0.000
  5  0.000  0.000  0.000  0.000
  6  0.000  0.000  0.000  0.000
  7  0.000  0.000  0.000  0.000
  8  0.000  0.000  0.000  0.000
  9  0.000  0.000  0.000  0.000
 10  0.000  0.000  0.000  0.000
 11  0.000  0.000  0.000  0.000
 12  0.000  0.000  0.000  0.000
 13  0.000  0.000  0.000  0.000
 14  0.000  0.000  0.000  0.000
 15  0.000  0.000  0.000  0.000
 16  0.000  0.000  0.000  0.000
 17  0.000  0.000  0.000  0.000
 18  0.000  0.000  0.000  0.000
 19  0.000  0.000  0.000  0.000
 20  0.000  0.000  0.000  0.000
 21  0.000  0.000  0.000  0.000
 22  0.000  0.001  0.000  0.001
 23  0.000  0.001  0.000  0.001
 24  0.000  0.000  0.000  0.000
 25  0.000  0.000  0.000  0.000
 26  0.000  0.000  0.000  0.000
 27  0.000  0.000  0.000  0.000
 28  0.000  0.000  0.000  0.000
 29  0.000  0.000  0.000  0.000
 30  0.000  0.000  0.000  0.000
 31  0.000  0.001  0.000  0.001
 32  0.000  0.000  0.000  0.000
 33  0.000  0.000  0.000  0.000
 34  0.000  0.498  0.000  0.498
 35  0.000  0.001  0.000  0.001
 36  0.000  0.495  0.000  0.495
 37  0.000  0.000  0.000  0.000
 38  0.000  0.000  0.000  0.000
tot  0.000  0.997  0.000  0.997
 
band   3 # energy  -71.55672401 # occ.  2.00000000
 
ion      s      p      d    tot
  1  0.000  0.000  0.000  0.000
  2  0.000  0.000  0.000  0.000
  3  0.000  0.000  0.000  0.000
  4  0.000  0.000  0.000  0.000
  5  0.000  0.000  0.000  0.000
  6  0.000  0.000  0.000  0.000
  7  0.000  0.000  0.000  0.000
  8  0.000  0.000  0.000  0.000
  9  0.000  0.000  0.000  0.000
 10  0.000  0.000  0.000  0.000
 11  0.000  0.000  0.000  0.000
 12  0.000  0.000  0.000  0.000
 13  0.000  0.000  0.000  0.000
 14  0.000  0.000  0.000  0.000
 15  0.000  0.000  0.000  0.000
 16  0.000  0.000  0.000  0.000
 17  0.000  0.000  0.000  0.000
 18  0.000  0.000  0.000  0.000
 19  0.000  0.000  0.000  0.000
 20  0.000  0.000  0.000  0.000
 21  0.000  0.000  0.000  0.000
 22  0.000  0.000  0.000  0.000
 23  0.000  0.000  0.000  0.000
 24  0.000  0.000  0.000  0.000
 25  0.000  0.000  0.000  0.000
 26  0.000  0.000  0.000  0.000
 27  0.000  0.000  0.000  0.000
 28  0.000  0.000  0.000  0.000
 29  0.000  0.000  0.000  0.000
 30  0.000  0.000  0.000  0.000
 31  0.000  0.874  0.000  0.874
 32  0.000  0.000  0.000  0.000
 33  0.000  0.000  0.000  0.000
 34  0.000  0.061  0.000  0.061
 35  0.000  0.000  0.000  0.000
 36  0.000  0.061  0.000  0.061
 37  0.000  0.000  0.000  0.000
 38  0.000  0.000  0.000  0.000
tot  0.000  0.997  0.000  0.997
 
band   4 # energy  -71.42334620 # occ.  2.00000000
 
ion      s      p      d    tot
  1  0.000  0.000  0.000  0.000
  2  0.000  0.000  0.000  0.000
  3  0.000  0.000  0.000  0.000
  4  0.000  0.000  0.000  0.000
  5  0.000  0.000  0.000  0.000
  6  0.000  0.000  0.000  0.000
  7  0.000  0.000  0.000  0.000
  8  0.000  0.000  0.000  0.000
  9  0.000  0.000  0.000  0.000
 10  0.000  0.000  0.000  0.000
 11  0.000  0.000  0.000  0.000
 12  0.000  0.000  0.000  0.000
 13  0.000  0.000  0.000  0.000
 14  0.000  0.000  0.000  0.000
 15  0.000  0.000  0.000  0.000
 16  0.000  0.000  0.000  0.000
 17  0.000  0.000  0.000  0.000
 18  0.000  0.000  0.000  0.000
 19  0.000  0.000  0.000  0.000
 20  0.000  0.000  0.000  0.000
 21  0.000  0.000  0.000  0.000
 22  0.000  0.000  0.000  0.000
 23  0.000  0.000  0.000  0.000
 24  0.000  0.000  0.000  0.000
 25  0.000  0.000  0.000  0.000
 26  0.000  0.000  0.000  0.000
 27  0.000  0.000  0.000  0.000
 28  0.000  0.475  0.000  0.475
 29  0.000  0.474  0.000  0.474
 30  0.000  0.000  0.000  0.000
 31  0.000  0.000  0.000  0.000
 32  0.000  0.000  0.000  0.000
 33  0.000  0.000  0.000  0.000
 34  0.000  0.023  0.000  0.023
 35  0.000  0.000  0.000  0.000
 36  0.000  0.023  0.000  0.023
 37  0.000  0.000  0.000  0.000
 38  0.000  0.000  0.000  0.000
tot  0.000  0.996  0.000  0.996
 
band   5 # energy  -71.40294011 # occ.  2.00000000
 
ion      s      p      d    tot
  1  0.000  0.000  0.000  0.000
  2  0.000  0.000  0.000  0.000
  3  0.000  0.000  0.000  0.000
  4  0.000  0.000  0.000  0.000
  5  0.000  0.000  0.000  0.000
  6  0.000  0.000  0.000  0.000
  7  0.000  0.000  0.000  0.000
  8  0.000  0.000  0.000  0.000
  9  0.000  0.000  0.000  0.000
 10  0.000  0.000  0.000  0.000
 11  0.000  0.000  0.000  0.000
 12  0.000  0.000  0.000  0.000
 13  0.000  0.000  0.000  0.000
 14  0.000  0.000  0.000  0.000
 15  0.000  0.000  0.000  0.000
 16  0.000  0.000  0.000  0.000
 17  0.000  0.000  0.000  0.000
 18  0.000  0.000  0.000  0.000
 19  0.000  0.000  0.000  0.000
 20  0.000  0.000  0.000  0.000
 21  0.000  0.000  0.000  0.000
 22  0.000  0.000  0.000  0.000
 23  0.000  0.000  0.000  0.000
 24  0.000  0.000  0.000  0.000
 25  0.000  0.000  0.000  0.000
 26  0.000  0.000  0.000  0.000
 27  0.000  0.000  0.000  0.000
 28  0.000  0.463  0.000  0.463
 29  0.000  0.464  0.000  0.464
 30  0.000  0.001  0.000  0.001
 31  0.000  0.000  0.000  0.000
 32  0.000  0.000  0.000  0.000
 33  0.000  0.000  0.000  0.000
 34  0.000  0.034  0.000  0.034
 35  0.000  0.000  0.000  0.000
 36  0.000  0.034  0.000  0.034
 37  0.000  0.000  0.000  0.000
 38  0.000  0.000  0.000  0.000
tot  0.000  0.996  0.000  0.996
 
band   6 # energy  -71.31927991 # occ.  2.00000000
 
ion      s      p      d    tot
  1  0.000  0.000  0.000  0.000
  2  0.000  0.000  0.000  0.000
  3  0.000  0.000  0.000  0.000
  4  0.000  0.000  0.000  0.000
  5  0.000  0.000  0.000  0.000
  6  0.000  0.000  0.000  0.000
  7  0.000  0.000  0.000  0.000
  8  0.000  0.000  0.000  0.000
  9  0.000  0.000  0.000  0.000
 10  0.000  0.000  0.000  0.000
 11  0.000  0.000  0.000  0.000
 12  0.000  0.000  0.000  0.000
 13  0.000  0.000  0.000  0.000
 14  0.000  0.000  0.000  0.000
 15  0.000  0.000  0.000  0.000
 16  0.000  0.000  0.000  0.000
 17  0.000  0.000  0.000  0.000
 18  0.000  0.000  0.000  0.000
 19  0.000  0.000  0.000  0.000
 20  0.000  0.000  0.000  0.000
 21  0.000  0.000  0.000  0.000
 22  0.000  0.000  0.000  0.000
 23  0.000  0.000  0.000  0.000
 24  0.000  0.000  0.000  0.000
 25  0.000  0.000  0.000  0.000
 26  0.000  0.001  0.000  0.001
 27  0.000  0.001  0.000  0.001
 28  0.000  0.013  0.000  0.013
 29  0.000  0.014  0.000  0.014
 30  0.000  0.057  0.000  0.057
 31  0.000  0.014  0.000  0.014
 32  0.000  0.000  0.000  0.000
 33  0.000  0.000  0.000  0.000
 34  0.000  0.441  0.000  0.441
 35  0.000  0.000  0.000  0.000
 36  0.000  0.454  0.000  0.454
 37  0.000  0.000  0.000  0.000
 38  0.000  0.000  0.000  0.000
tot  0.000  0.996  0.000  0.996
 
band   7 # energy  -71.31528782 # occ.  2.00000000
 
ion      s      p      d    tot
  1  0.000  0.000  0.000  0.000
  2  0.000  0.000  0.000  0.000
  3  0.000  0.000  0.000  0.000
  4  0.000  0.000  0.000  0.000
  5  0.000  0.000  0.000  0.000
  6  0.000  0.000  0.000  0.000
  7  0.000  0.000  0.000  0.000
  8  0.000  0.000  0.000  0.000
  9  0.000  0.000  0.000  0.000
 10  0.000  0.000  0.000  0.000
 11  0.000  0.000  0.000  0.000
 12  0.000  0.000  0.000  0.000
 13  0.000  0.000  0.000  0.000
 14  0.000  0.000  0.000  0.000
 15  0.000  0.000  0.000  0.000
 16  0.000  0.000  0.000  0.000
 17  0.000  0.000  0.000  0.000
 18  0.000  0.000  0.000  0.000
 19  0.000  0.000  0.000  0.000
 20  0.000  0.000  0.000  0.000
 21  0.000  0.000  0.000  0.000
 22  0.000  0.000  0.000  0.000
 23  0.000  0.000  0.000  0.000
 24  0.000  0.000  0.000  0.000
 25  0.000  0.000  0.000  0.000
 26  0.000  0.001  0.000  0.001
 27  0.000  0.001  0.000  0.001
 28  0.000  0.020  0.000  0.020
 29  0.000  0.019  0.000  0.019
 30  0.000  0.001  0.000  0.001
 31  0.000  0.009  0.000  0.009
 32  0.000  0.000  0.000  0.000
 33  0.000  0.000  0.000  0.000
 34  0.000  0.479  0.000  0.479
 35  0.000  0.000  0.000  0.000
 36  0.000  0.467  0.000  0.467
 37  0.000  0.000  0.000  0.000
 38  0.000  0.000  0.000  0.000
tot  0.000  0.997  0.000  0.997
 
band   8 # energy  -71.30687106 # occ.  2.00000000
 
ion      s      p      d    tot
  1  0.000  0.000  0.000  0.000
  2  0.000  0.000  0.000  0.000
  3  0.000  0.000  0.000  0.000
  4  0.000  0.000  0.000  0.000
  5  0.000  0.000  0.000  0.000
  6  0.000  0.000  0.000  0.000
  7  0.000  0.000  0.000  0.000
  8  0.000  0.000  0.000  0.000
  9  0.000  0.000  0.000  0.000
 10  0.000  0.000  0.000  0.000
 11  0.000  0.000  0.000  0.000
 12  0.000  0.000  0.000  0.000
 13  0.000  0.000  0.000  0.000
 14  0.000  0.000  0.000  0.000
 15  0.000  0.000  0.000  0.000
 16  0.000  0.000  0.000  0.000
 17  0.000  0.000  0.000  0.000
 18  0.000  0.000  0.000  0.000
 19  0.000  0.000  0.000  0.000
 20  0.000  0.000  0.000  0.000
 21  0.000  0.000  0.000  0.000
 22  0.000  0.000  0.000  0.000
 23  0.000  0.000  0.000  0.000
 24  0.000  0.001  0.000  0.001
 25  0.000  0.000  0.000  0.000
 26  0.000  0.000  0.000  0.000
 27  0.000  0.000  0.000  0.000
 28  0.000  0.011  0.000  0.011
 29  0.000  0.011  0.000  0.011
 30  0.000  0.001  0.000  0.001
 31  0.000  0.003  0.000  0.003
 32  0.000  0.000  0.000  0.000
 33  0.000  0.000  0.000  0.000
 34  0.000  0.483  0.000  0.483
 35  0.000  0.000  0.000  0.000
 36  0.000  0.486  0.000  0.486
 37  0.000  0.000  0.000  0.000
 38  0.000  0.000  0.000  0.000
tot  0.000  0.997  0.000  0.997
 
band   9 # energy  -71.30039750 # occ.  2.00000000
 
ion      s      p      d    tot
  1  0.000  0.000  0.000  0.000
  2  0.000  0.000  0.000  0.000
  3  0.000  0.000  0.000  0.000
  4  0.000  0.000  0.000  0.000
  5  0.000  0.000  0.000  0.000
  6  0.000  0.000  0.000  0.000
  7  0.000  0.000  0.000  0.000
  8  0.000  0.000  0.000  0.000
  9  0.000  0.000  0.000  0.000
 10  0.000  0.000  0.000  0.000
 11  0.000  0.000  0.000  0.000
 12  0.000  0.000  0.000  0.000
 13  0.000  0.000  0.000  0.000
 14  0.000  0.000  0.000  0.000
 15  0.000  0.000  0.000  0.000
 16  0.000  0.000  0.000  0.000
 17  0.000  0.000  0.000  0.000
 18  0.000  0.000  0.000  0.000
 19  0.000  0.000  0.000  0.000
 20  0.000  0.000  0.000  0.000
 21  0.000  0.000  0.000  0.000
 22  0.000  0.000  0.000  0.000
 23  0.000  0.000  0.000  0.000
 24  0.000  0.000  0.000  0.000
 25  0.000  0.000  0.000  0.000
 26  0.000  0.000  0.000  0.000
 27  0.000  0.000  0.000  0.000
 28  0.000  0.016  0.000  0.016
 29  0.000  0.016  0.000  0.016
 30  0.000  0.000  0.000  0.000
 31  0.000  0.001  0.000  0.001
 32  0.000  0.000  0.000  0.000
 33  0.000  0.000  0.000  0.000
 34  0.000  0.483  0.000  0.483
 35  0.000  0.001  0.000  0.001
 36  0.000  0.479  0.000  0.479
 37  0.000  0.000  0.000  0.000
 38  0.000  0.000  0.000  0.000
tot  0.000  0.997  0.000  0.997
 
band  10 # energy  -71.27759924 # occ.  2.00000000
 
ion      s      p      d    tot
  1  0.000  0.000  0.000  0.000
  2  0.000  0.000  0.000  0.000
  3  0.000  0.000  0.000  0.000
  4  0.000  0.000  0.000  0.000
  5  0.000  0.000  0.000  0.000
  6  0.000  0.000  0.000  0.000
  7  0.000  0.000  0.000  0.000
  8  0.000  0.000  0.000  0.000
  9  0.000  0.000  0.000  0.000
 10  0.000  0.000  0.000  0.000
 11  0.000  0.000  0.000  0.000
 12  0.000  0.000  0.000  0.000
 13  0.000  0.000  0.000  0.000
 14  0.000  0.000  0.000  0.000
 15  0.000  0.000  0.000  0.000
 16  0.000  0.000  0.000  0.000
 17  0.000  0.000  0.000  0.000
 18  0.000  0.000  0.000  0.000
 19  0.000  0.000  0.000  0.000
 20  0.000  0.001  0.000  0.001
 21  0.000  0.000  0.000  0.000
 22  0.000  0.000  0.000  0.000
 23  0.000  0.000  0.000  0.000
 24  0.000  0.000  0.000  0.000
 25  0.000  0.000  0.000  0.000
 26  0.000  0.000  0.000  0.000
 27  0.000  0.000  0.000  0.000
 28  0.000  0.000  0.000  0.000
 29  0.000  0.000  0.000  0.000
 30  0.000  0.936  0.000  0.936
 31  0.000  0.001  0.000  0.001
 32  0.000  0.000  0.000  0.000
 33  0.000  0.000  0.000  0.000
 34  0.000  0.029  0.000  0.029
 35  0.000  0.000  0.000  0.000
 36  0.000  0.029  0.000  0.029
 37  0.000  0.000  0.000  0.000
 38  0.000  0.000  0.000  0.000
tot  0.000  0.997  0.000  0.997
 
band  11 # energy  -71.18102082 # occ.  2.00000000
 
ion      s      p      d    tot
  1  0.000  0.000  0.000  0.000
  2  0.000  0.000  0.000  0.000
  3  0.000  0.000  0.000  0.000
  4  0.000  0.000  0.000  0.000
  5  0.000  0.000  0.000  0.000
  6  0.000  0.000  0.000  0.000
  7  0.000  0.000  0.000  0.000
  8  0.000  0.000  0.000  0.000
  9  0.000  0.000  0.000  0.000
 10  0.000  0.000  0.000  0.000
 11  0.000  0.000  0.000  0.000
 12  0.000  0.000  0.000  0.000
 13  0.000  0.000  0.000  0.000
 14  0.000  0.000  0.000  0.000
 15  0.000  0.000  0.000  0.000
 16  0.000  0.000  0.000  0.000
 17  0.000  0.000  0.000  0.000
 18  0.000  0.000  0.000  0.000
 19  0.000  0.000  0.000  0.000
 20  0.000  0.000  0.000  0.000
 21  0.000  0.000  0.000  0.000
 22  0.000  0.000  0.000  0.000
 23  0.000  0.000  0.000  0.000
 24  0.000  0.000  0.000  0.000
 25  0.000  0.001  0.000  0.001
 26  0.000  0.000  0.000  0.000
 27  0.000  0.000  0.000  0.000
 28  0.000  0.494  0.000  0.494
 29  0.000  0.496  0.000  0.496
 30  0.000  0.000  0.000  0.000
 31  0.000  0.002  0.000  0.002
 32  0.000  0.001  0.000  0.001
 33  0.000  0.001  0.000  0.001
 34  0.000  0.001  0.000  0.001
 35  0.000  0.001  0.000  0.001
 36  0.000  0.001  0.000  0.001
 37  0.000  0.000  0.000  0.000
 38  0.000  0.000  0.000  0.000
tot  0.000  0.996  0.000  0.996
 
band  12 # energy  -71.16485405 # occ.  2.00000000
 
ion      s      p      d    tot
  1  0.000  0.000  0.000  0.000
  2  0.000  0.000  0.000  0.000
  3  0.000  0.000  0.000  0.000
  4  0.000  0.000  0.000  0.000
  5  0.000  0.000  0.000  0.000
  6  0.000  0.000  0.000  0.000
  7  0.000  0.000  0.000  0.000
  8  0.000  0.000  0.000  0.000
  9  0.000  0.000  0.000  0.000
 10  0.000  0.000  0.000  0.000
 11  0.000  0.000  0.000  0.000
 12  0.000  0.000  0.000  0.000
 13  0.000  0.000  0.000  0.000
 14  0.000  0.000  0.000  0.000
 15  0.000  0.000  0.000  0.000
 16  0.000  0.000  0.000  0.000
 17  0.000  0.000  0.000  0.000
 18  0.000  0.000  0.000  0.000
 19  0.000  0.000  0.000  0.000
 20  0.000  0.000  0.000  0.000
 21  0.000  0.000  0.000  0.000
 22  0.000  0.000  0.000  0.000
 23  0.000  0.000  0.000  0.000
 24  0.000  0.000  0.000  0.000
 25  0.000  0.000  0.000  0.000
 26  0.000  0.000  0.000  0.000
 27  0.000  0.000  0.000  0.000
 28  0.000  0.001  0.000  0.001
 29  0.000  0.001  0.000  0.001
 30  0.000  0.000  0.000  0.000
 31  0.000  0.978  0.000  0.978
 32  0.000  0.000  0.000  0.000
 33  0.000  0.000  0.000  0.000
 34  0.000  0.008  0.000  0.008
 35  0.000  0.000  0.000  0.000
 36  0.000  0.008  0.000  0.008
 37  0.000  0.000  0.000  0.000
 38  0.000  0.000  0.000  0.000
tot  0.000  0.997  0.000  0.997
 
band  13 # energy  -71.15715986 # occ.  2.00000000
 
ion      s      p      d    tot
  1  0.000  0.000  0.000  0.000
  2  0.000  0.000  0.000  0.000
  3  0.000  0.000  0.000  0.000
  4  0.000  0.000  0.000  0.000
  5  0.000  0.000  0.000  0.000
  6  0.000  0.000  0.000  0.000
  7  0.000  0.000  0.000  0.000
  8  0.000  0.000  0.000  0.000
  9  0.000  0.000  0.000  0.000
 10  0.000  0.000  0.000  0.000
 11  0.000  0.000  0.000  0.000
 12  0.000  0.000  0.000  0.000
 13  0.000  0.000  0.000  0.000
 14  0.000  0.000  0.000  0.000
 15  0.000  0.000  0.000  0.000
 16  0.000  0.000  0.000  0.000
 17  0.000  0.000  0.000  0.000
 18  0.000  0.000  0.000  0.000
 19  0.000  0.000  0.000  0.000
 20  0.000  0.000  0.000  0.000
 21  0.000  0.000  0.000  0.000
 22  0.000  0.000  0.000  0.000
 23  0.000  0.000  0.000  0.000
 24  0.000  0.000  0.000  0.000
 25  0.000  0.000  0.000  0.000
 26  0.000  0.000  0.000  0.000
 27  0.000  0.000  0.000  0.000
 28  0.000  0.485  0.000  0.485
 29  0.000  0.483  0.000  0.483
 30  0.000  0.025  0.000  0.025
 31  0.000  0.000  0.000  0.000
 32  0.000  0.001  0.000  0.001
 33  0.000  0.001  0.000  0.001
 34  0.000  0.001  0.000  0.001
 35  0.000  0.000  0.000  0.000
 36  0.000  0.001  0.000  0.001
 37  0.000  0.000  0.000  0.000
 38  0.000  0.000  0.000  0.000
tot  0.000  0.997  0.000  0.997
 
band  14 # energy  -71.13745291 # occ.  2.00000000
 
ion      s      p      d    tot
  1  0.000  0.000  0.000  0.000
  2  0.000  0.000  0.000  0.000
  3  0.000  0.000  0.000  0.000
  4  0.000  0.000  0.000  0.000
  5  0.000  0.000  0.000  0.000
  6  0.000  0.000  0.000  0.000
  7  0.000  0.000  0.000  0.000
  8  0.000  0.000  0.000  0.000
  9  0.000  0.000  0.000  0.000
 10  0.000  0.000  0.000  0.000
 11  0.000  0.000  0.000  0.000
 12  0.000  0.000  0.000  0.000
 13  0.000  0.000  0.000  0.000
 14  0.000  0.000  0.000  0.000
 15  0.000  0.000  0.000  0.000
 16  0.000  0.000  0.000  0.000
 17  0.000  0.000  0.000  0.000
 18  0.000  0.000  0.000  0.000
 19  0.000  0.000  0.000  0.000
 20  0.000  0.000  0.000  0.000
 21  0.000  0.000  0.000  0.000
 22  0.000  0.000  0.000  0.000
 23  0.000  0.000  0.000  0.000
 24  0.000  0.000  0.000  0.000
 25  0.000  0.000  0.000  0.000
 26  0.000  0.000  0.000  0.000
 27  0.000  0.000  0.000  0.000
 28  0.000  0.000  0.000  0.000
 29  0.000  0.000  0.000  0.000
 30  0.000  0.000  0.000  0.000
 31  0.000  0.986  0.000  0.986
 32  0.000  0.000  0.000  0.000
 33  0.000  0.000  0.000  0.000
 34  0.000  0.005  0.000  0.005
 35  0.000  0.000  0.000  0.000
 36  0.000  0.005  0.000  0.005
 37  0.000  0.000  0.000  0.000
 38  0.000  0.000  0.000  0.000
tot  0.000  0.997  0.000  0.997
 
band  15 # energy  -71.09342618 # occ.  2.00000000
 
ion      s      p      d    tot
  1  0.000  0.000  0.000  0.000
  2  0.000  0.000  0.000  0.000
  3  0.000  0.000  0.000  0.000
  4  0.000  0.000  0.000  0.000
  5  0.000  0.000  0.000  0.000
  6  0.000  0.000  0.000  0.000
  7  0.000  0.000  0.000  0.000
  8  0.000  0.000  0.000  0.000
  9  0.000  0.000  0.000  0.000
 10  0.000  0.000  0.000  0.000
 11  0.000  0.000  0.000  0.000
 12  0.000  0.000  0.000  0.000
 13  0.000  0.000  0.000  0.000
 14  0.000  0.000  0.000  0.000
 15  0.000  0.000  0.000  0.000
 16  0.000  0.000  0.000  0.000
 17  0.000  0.000  0.000  0.000
 18  0.000  0.000  0.000  0.000
 19  0.000  0.001  0.000  0.001
 20  0.000  0.000  0.000  0.000
 21  0.000  0.001  0.000  0.001
 22  0.000  0.000  0.000  0.000
 23  0.000  0.000  0.000  0.000
 24  0.000  0.000  0.000  0.000
 25  0.000  0.003  0.000  0.003
 26  0.000  0.001  0.000  0.001
 27  0.000  0.001  0.000  0.001
 28  0.000  0.494  0.000  0.494
 29  0.000  0.495  0.000  0.495
 30  0.000  0.000  0.000  0.000
 31  0.000  0.000  0.000  0.000
 32  0.000  0.000  0.000  0.000
 33  0.000  0.000  0.000  0.000
 34  0.000  0.001  0.000  0.001
 35  0.000  0.000  0.000  0.000
 36  0.000  0.001  0.000  0.001
 37  0.000  0.000  0.000  0.000
 38  0.000  0.000  0.000  0.000
tot  0.000  0.997  0.000  0.997
 
band  16 # energy  -71.08613136 # occ.  2.00000000
 
ion      s      p      d    tot
  1  0.000  0.000  0.000  0.000
  2  0.000  0.000  0.000  0.000
  3  0.000  0.000  0.000  0.000
  4  0.000  0.000  0.000  0.000
  5  0.000  0.000  0.000  0.000
  6  0.000  0.000  0.000  0.000
  7  0.000  0.000  0.000  0.000
  8  0.000  0.000  0.000  0.000
  9  0.000  0.000  0.000  0.000
 10  0.000  0.000  0.000  0.000
 11  0.000  0.000  0.000  0.000
 12  0.000  0.000  0.000  0.000
 13  0.000  0.000  0.000  0.000
 14  0.000  0.000  0.000  0.000
 15  0.000  0.000  0.000  0.000
 16  0.000  0.000  0.000  0.000
 17  0.000  0.000  0.000  0.000
 18  0.000  0.000  0.000  0.000
 19  0.000  0.001  0.000  0.001
 20  0.000  0.000  0.000  0.000
 21  0.000  0.001  0.000  0.001
 22  0.000  0.000  0.000  0.000
 23  0.000  0.000  0.000  0.000
 24  0.000  0.000  0.000  0.000
 25  0.000  0.001  0.000  0.001
 26  0.000  0.000  0.000  0.000
 27  0.000  0.000  0.000  0.000
 28  0.000  0.424  0.000  0.424
 29  0.000  0.423  0.000  0.423
 30  0.000  0.145  0.000  0.145
 31  0.000  0.000  0.000  0.000
 32  0.000  0.000  0.000  0.000
 33  0.000  0.000  0.000  0.000
 34  0.000  0.001  0.000  0.001
 35  0.000  0.000  0.000  0.000
 36  0.000  0.001  0.000  0.001
 37  0.000  0.000  0.000  0.000
 38  0.000  0.000  0.000  0.000
tot  0.000  0.997  0.000  0.997
 
band  17 # energy  -71.06058943 # occ.  2.00000000
 
ion      s      p      d    tot
  1  0.000  0.000  0.000  0.000
  2  0.000  0.000  0.000  0.000
  3  0.000  0.000  0.000  0.000
  4  0.000  0.000  0.000  0.000
  5  0.000  0.000  0.000  0.000
  6  0.000  0.000  0.000  0.000
  7  0.000  0.000  0.000  0.000
  8  0.000  0.000  0.000  0.000
  9  0.000  0.000  0.000  0.000
 10  0.000  0.000  0.000  0.000
 11  0.000  0.000  0.000  0.000
 12  0.000  0.000  0.000  0.000
 13  0.000  0.000  0.000  0.000
 14  0.000  0.000  0.000  0.000
 15  0.000  0.000  0.000  0.000
 16  0.000  0.000  0.000  0.000
 17  0.000  0.000  0.000  0.000
 18  0.000  0.000  0.000  0.000
 19  0.000  0.000  0.000  0.000
 20  0.000  0.000  0.000  0.000
 21  0.000  0.000  0.000  0.000
 22  0.000  0.000  0.000  0.000
 23  0.000  0.000  0.000  0.000
 24  0.000  0.000  0.000  0.000
 25  0.000  0.000  0.000  0.000
 26  0.000  0.001  0.000  0.001
 27  0.000  0.001  0.000  0.001
 28  0.000  0.086  0.000  0.086
 29  0.000  0.086  0.000  0.086
 30  0.000  0.823  0.000  0.823
 31  0.000  0.000  0.000  0.000
 32  0.000  0.000  0.000  0.000
 33  0.000  0.000  0.000  0.000
 34  0.000  0.000  0.000  0.000
 35  0.000  0.000  0.000  0.000
 36  0.000  0.000  0.000  0.000
 37  0.000  0.000  0.000  0.000
 38  0.000  0.000  0.000  0.000
tot  0.000  0.997  0.000  0.997
 
band  18 # energy  -71.01804713 # occ.  2.00000000
 
ion      s      p      d    tot
  1  0.000  0.000  0.000  0.000
  2  0.000  0.000  0.000  0.000
  3  0.000  0.000  0.000  0.000
  4  0.000  0.000  0.000  0.000
  5  0.000  0.000  0.000  0.000
  6  0.000  0.000  0.000  0.000
  7  0.000  0.000  0.000  0.000
  8  0.000  0.000  0.000  0.000
  9  0.000  0.000  0.000  0.000
 10  0.000  0.000  0.000  0.000
 11  0.000  0.000  0.000  0.000
 12  0.000  0.000  0.000  0.000
 13  0.000  0.000  0.000  0.000
 14  0.000  0.000  0.000  0.000
 15  0.000  0.000  0.000  0.000
 16  0.000  0.001  0.000  0.001
 17  0.000  0.001  0.000  0.001
 18  0.000  0.000  0.000  0.000
 19  0.000  0.000  0.000  0.000
 20  0.000  0.002  0.000  0.002
 21  0.000  0.000  0.000  0.000
 22  0.000  0.000  0.000  0.000
 23  0.000  0.000  0.000  0.000
 24  0.000  0.000  0.000  0.000
 25  0.000  0.000  0.000  0.000
 26  0.000  0.004  0.000  0.004
 27  0.000  0.004  0.000  0.004
 28  0.000  0.000  0.000  0.000
 29  0.000  0.000  0.000  0.000
 30  0.000  0.983  0.000  0.983
 31  0.000  0.000  0.000  0.000
 32  0.000  0.000  0.000  0.000
 33  0.000  0.000  0.000  0.000
 34  0.000  0.001  0.000  0.001
 35  0.000  0.000  0.000  0.000
 36  0.000  0.001  0.000  0.001
 37  0.000  0.000  0.000  0.000
 38  0.000  0.000  0.000  0.000
tot  0.000  0.997  0.000  0.997
 
band  19 # energy  -71.00825434 # occ.  2.00000000
 
ion      s      p      d    tot
  1  0.000  0.000  0.000  0.000
  2  0.000  0.000  0.000  0.000
  3  0.000  0.000  0.000  0.000
  4  0.000  0.002  0.000  0.002
  5  0.000  0.000  0.000  0.000
  6  0.000  0.000  0.000  0.000
  7  0.000  0.000  0.000  0.000
  8  0.000  0.000  0.000  0.000
  9  0.000  0.000  0.000  0.000
 10  0.000  0.015  0.000  0.015
 11  0.000  0.001  0.000  0.001
 12  0.000  0.001  0.000  0.001
 13  0.000  0.370  0.000  0.370
 14  0.000  0.058  0.000  0.058
 15  0.000  0.369  0.000  0.369
 16  0.000  0.036  0.000  0.036
 17  0.000  0.036  0.000  0.036
 18  0.000  0.007  0.000  0.007
 19  0.000  0.000  0.000  0.000
 20  0.000  0.000  0.000  0.000
 21  0.000  0.000  0.000  0.000
 22  0.000  0.049  0.000  0.049
 23  0.000  0.049  0.000  0.049
 24  0.000  0.000  0.000  0.000
 25  0.000  0.000  0.000  0.000
 26  0.000  0.000  0.000  0.000
 27  0.000  0.000  0.000  0.000
 28  0.000  0.000  0.000  0.000
 29  0.000  0.000  0.000  0.000
 30  0.000  0.000  0.000  0.000
 31  0.000  0.000  0.000  0.000
 32  0.000  0.000  0.000  0.000
 33  0.000  0.000  0.000  0.000
 34  0.000  0.000  0.000  0.000
 35  0.000  0.000  0.000  0.000
 36  0.000  0.000  0.000  0.000
 37  0.000  0.000  0.000  0.000
 38  0.000  0.000  0.000  0.000
tot  0.000  0.996  0.000  0.996
 
band  20 # energy  -71.00481881 # occ.  2.00000000
 
ion      s      p      d    tot
  1  0.000  0.000  0.000  0.000
  2  0.000  0.000  0.000  0.000
  3  0.000  0.000  0.000  0.000
  4  0.000  0.000  0.000  0.000
  5  0.000  0.000  0.000  0.000
  6  0.000  0.000  0.000  0.000
  7  0.000  0.000  0.000  0.000
  8  0.000  0.000  0.000  0.000
  9  0.000  0.000  0.000  0.000
 10  0.000  0.000  0.000  0.000
 11  0.000  0.008  0.000  0.008
 12  0.000  0.008  0.000  0.008
 13  0.000  0.176  0.000  0.176
 14  0.000  0.409  0.000  0.409
 15  0.000  0.176  0.000  0.176
 16  0.000  0.051  0.000  0.051
 17  0.000  0.050  0.000  0.050
 18  0.000  0.002  0.000  0.002
 19  0.000  0.000  0.000  0.000
 20  0.000  0.000  0.000  0.000
 21  0.000  0.000  0.000  0.000
 22  0.000  0.056  0.000  0.056
 23  0.000  0.056  0.000  0.056
 24  0.000  0.000  0.000  0.000
 25  0.000  0.000  0.000  0.000
 26  0.000  0.000  0.000  0.000
 27  0.000  0.000  0.000  0.000
 28  0.000  0.000  0.000  0.000
 29  0.000  0.000  0.000  0.000
 30  0.000  0.000  0.000  0.000
 31  0.000  0.000  0.000  0.000
 32  0.000  0.000  0.000  0.000
 33  0.000  0.000  0.000  0.000
 34  0.000  0.000  0.000  0.000
 35  0.000  0.000  0.000  0.000
 36  0.000  0.000  0.000  0.000
 37  0.000  0.000  0.000  0.000
 38  0.000  0.000  0.000  0.000
tot  0.000  0.996  0.000  0.996
 
band  21 # energy  -71.00147231 # occ.  2.00000000
 
ion      s      p      d    tot
  1  0.000  0.000  0.000  0.000
  2  0.000  0.000  0.000  0.000
  3  0.000  0.000  0.000  0.000
  4  0.000  0.000  0.000  0.000
  5  0.000  0.001  0.000  0.001
  6  0.000  0.001  0.000  0.001
  7  0.000  0.000  0.000  0.000
  8  0.000  0.000  0.000  0.000
  9  0.000  0.000  0.000  0.000
 10  0.000  0.002  0.000  0.002
 11  0.000  0.029  0.000  0.029
 12  0.000  0.029  0.000  0.029
 13  0.000  0.336  0.000  0.336
 14  0.000  0.092  0.000  0.092
 15  0.000  0.340  0.000  0.340
 16  0.000  0.036  0.000  0.036
 17  0.000  0.037  0.000  0.037
 18  0.000  0.056  0.000  0.056
 19  0.000  0.000  0.000  0.000
 20  0.000  0.000  0.000  0.000
 21  0.000  0.000  0.000  0.000
 22  0.000  0.015  0.000  0.015
 23  0.000  0.015  0.000  0.015
 24  0.000  0.003  0.000  0.003
 25  0.000  0.000  0.000  0.000
 26  0.000  0.000  0.000  0.000
 27  0.000  0.000  0.000  0.000
 28  0.000  0.000  0.000  0.000
 29  0.000  0.000  0.000  0.000
 30  0.000  0.000  0.000  0.000
 31  0.000  0.000  0.000  0.000
 32  0.000  0.000  0.000  0.000
 33  0.000  0.000  0.000  0.000
 34  0.000  0.000  0.000  0.000
 35  0.000  0.000  0.000  0.000
 36  0.000  0.000  0.000  0.000
 37  0.000  0.000  0.000  0.000
 38  0.000  0.000  0.000  0.000
tot  0.000  0.996  0.000  0.996
 
band  22 # energy  -70.99631568 # occ.  2.00000000
 
ion      s      p      d    tot
  1  0.000  0.000  0.000  0.000
  2  0.000  0.000  0.000  0.000
  3  0.000  0.000  0.000  0.000
  4  0.000  0.000  0.000  0.000
  5  0.000  0.000  0.000  0.000
  6  0.000  0.000  0.000  0.000
  7  0.000  0.001  0.000  0.001
  8  0.000  0.000  0.000  0.000
  9  0.000  0.001  0.000  0.001
 10  0.000  0.047  0.000  0.047
 11  0.000  0.027  0.000  0.027
 12  0.000  0.027  0.000  0.027
 13  0.000  0.315  0.000  0.315
 14  0.000  0.033  0.000  0.033
 15  0.000  0.310  0.000  0.310
 16  0.000  0.049  0.000  0.049
 17  0.000  0.048  0.000  0.048
 18  0.000  0.129  0.000  0.129
 19  0.000  0.001  0.000  0.001
 20  0.000  0.000  0.000  0.000
 21  0.000  0.001  0.000  0.001
 22  0.000  0.002  0.000  0.002
 23  0.000  0.002  0.000  0.002
 24  0.000  0.001  0.000  0.001
 25  0.000  0.000  0.000  0.000
 26  0.000  0.001  0.000  0.001
 27  0.000  0.001  0.000  0.001
 28  0.000  0.000  0.000  0.000
 29  0.000  0.000  0.000  0.000
 30  0.000  0.000  0.000  0.000
 31  0.000  0.000  0.000  0.000
 32  0.000  0.000  0.000  0.000
 33  0.000  0.000  0.000  0.000
 34  0.000  0.000  0.000  0.000
 35  0.000  0.000  0.000  0.000
 36  0.000  0.000  0.000  0.000
 37  0.000  0.000  0.000  0.000
 38  0.000  0.000  0.000  0.000
tot  0.000  0.996  0.000  0.996
 
band  23 # energy  -70.99526698 # occ.  2.00000000
 
ion      s      p      d    tot
  1  0.000  0.000  0.000  0.000
  2  0.000  0.000  0.000  0.000
  3  0.000  0.000  0.000  0.000
  4  0.000  0.000  0.000  0.000
  5  0.000  0.001  0.000  0.001
  6  0.000  0.001  0.000  0.001
  7  0.000  0.000  0.000  0.000
  8  0.000  0.000  0.000  0.000
  9  0.000  0.000  0.000  0.000
 10  0.000  0.003  0.000  0.003
 11  0.000  0.017  0.000  0.017