unknown system                          
           1
     7.529542    0.000000    0.000000
     3.764771    6.520775    0.000000
     0.000000    0.000000   26.207423
   Cu   C 
  36   2
Direct configuration=     1
   0.00000000  0.00000000  0.00000000
   0.00000000  0.33333333  0.00000000
   0.00000000  0.66666667  0.00000000
   0.33333333  0.00000000  0.00000000
   0.33333333  0.33333333  0.00000000
   0.33333333  0.66666667  0.00000000
   0.66666667  0.00000000  0.00000000
   0.66666667  0.33333333  0.00000000
   0.66666667  0.66666667  0.00000000
   0.11111111  0.11111111  0.07819471
   0.11111111  0.44444444  0.07819471
   0.11111111  0.77777778  0.07819471
   0.44444444  0.11111111  0.07819471
   0.44444444  0.44444444  0.07819471
   0.44444444  0.77777778  0.07819471
   0.77777778  0.11111111  0.07819471
   0.77777778  0.44444444  0.07819471
   0.77777778  0.77777778  0.07819471
   0.22156672  0.22156672  0.15698183
   0.22219376  0.55556979  0.15663707
   0.22156672  0.89019990  0.15698183
   0.55556979  0.22219376  0.15663707
   0.55556979  0.55556979  0.15663707
   0.55498583  0.88917375  0.15640686
   0.89019990  0.22156672  0.15698183
   0.88917375  0.55498583  0.15640686
   0.88917375  0.88917375  0.15640686
   0.99499124  0.99499124  0.23819225
   0.99499124  0.34335085  0.23819225
   0.99922840  0.66705247  0.23489935
   0.34335085  0.99499124  0.23819225
   0.33432735  0.33432735  0.23600336
   0.33432735  0.66467863  0.23600336
   0.66705247  0.99922840  0.23489935
   0.66467863  0.33432735  0.23600336
   0.66705247  0.66705247  0.23489935
   0.11111111  0.11111111  0.27869515
   0.66705247  0.83314043  0.32663491
Direct configuration=     2
   0.00000000  0.00000000  0.00000000
   0.00000000  0.33333333  0.00000000
   0.00000000  0.66666667  0.00000000
   0.33333333  0.00000000  0.00000000
   0.33333333  0.33333333  0.00000000
   0.33333333  0.66666667  0.00000000
   0.66666667  0.00000000  0.00000000
   0.66666667  0.33333333  0.00000000
   0.66666667  0.66666667  0.00000000
   0.11111111  0.11111111  0.07819471
   0.11111111  0.44444444  0.07819471
   0.11111111  0.77777778  0.07819471
   0.44444444  0.11111111  0.07819471
   0.44444444  0.44444444  0.07819471
   0.44444444  0.77777778  0.07819471
   0.77777778  0.11111111  0.07819471
   0.77777778  0.44444444  0.07819471
   0.77777778  0.77777778  0.07819471
   0.22177599  0.22145604  0.15703314
   0.22223073  0.55555130  0.15676451
   0.22177599  0.89010130  0.15703314
   0.55579295  0.22193819  0.15668759
   0.55579295  0.55560220  0.15668759
   0.55502404  0.88915465  0.15626211
   0.89024059  0.22154637  0.15702309
   0.88889192  0.55518545  0.15634042
   0.88889192  0.88925596  0.15634042
   0.99513953  0.99510553  0.23833096
   0.99513953  0.34308827  0.23833096
   0.99874091  0.66729621  0.23546367
   0.34378611  0.99477361  0.23892218
   0.33426299  0.33430868  0.23602111
   0.33426299  0.66476166  0.23602111
   0.66719750  0.99751524  0.23678096
   0.66457872  0.33437731  0.23602244
   0.66719750  0.66862059  0.23678096
   0.11103722  0.11114806  0.27855477
   0.66659366  0.83336984  0.32159633
Direct configuration=     3
   0.00000000  0.00000000  0.00000000
   0.00000000  0.33333333  0.00000000
   0.00000000  0.66666667  0.00000000
   0.33333333  0.00000000  0.00000000
   0.33333333  0.33333333  0.00000000
   0.33333333  0.66666667  0.00000000
   0.66666667  0.00000000  0.00000000
   0.66666667  0.33333333  0.00000000
   0.66666667  0.66666667  0.00000000
   0.11111111  0.11111111  0.07819471
   0.11111111  0.44444444  0.07819471
   0.11111111  0.77777778  0.07819471
   0.44444444  0.11111111  0.07819471
   0.44444444  0.44444444  0.07819471
   0.44444444  0.77777778  0.07819471
   0.77777778  0.11111111  0.07819471
   0.77777778  0.44444444  0.07819471
   0.77777778  0.77777778  0.07819471
   0.22240380  0.22112402  0.15718707
   0.22234163  0.55549585  0.15714681
   0.22240380  0.88980552  0.15718707
   0.55646243  0.22117146  0.15683912
   0.55646243  0.55569945  0.15683912
   0.55513866  0.88909734  0.15582788
   0.89036265  0.22148534  0.15714688
   0.88804643  0.55578431  0.15614112
   0.88804643  0.88950259  0.15614112
   0.99558441  0.99544837  0.23874708
   0.99558441  0.34230056  0.23874708
   0.99727842  0.66802745  0.23715662
   0.34509190  0.99412072  0.24111194
   0.33406991  0.33425268  0.23607435
   0.33406991  0.66501074  0.23607435
   0.66763262  0.99237575  0.24242578
   0.66427897  0.33452718  0.23607967
   0.66763262  0.67332497  0.24242578
   0.11081553  0.11125890  0.27813363
   0.66521724  0.83405805  0.30648060
Direct configuration=     4
   0.00000000  0.00000000  0.00000000
   0.00000000  0.33333333  0.00000000
   0.00000000  0.66666667  0.00000000
   0.33333333  0.00000000  0.00000000
   0.33333333  0.33333333  0.00000000
   0.33333333  0.66666667  0.00000000
   0.66666667  0.00000000  0.00000000
   0.66666667  0.33333333  0.00000000
   0.66666667  0.66666667  0.00000000
   0.11111111  0.11111111  0.07819471
   0.11111111  0.44444444  0.07819471
   0.11111111  0.77777778  0.07819471
   0.44444444  0.11111111  0.07819471
   0.44444444  0.44444444  0.07819471
   0.44444444  0.77777778  0.07819471
   0.77777778  0.11111111  0.07819471
   0.77777778  0.44444444  0.07819471
   0.77777778  0.77777778  0.07819471
   0.22365943  0.22045996  0.15749492
   0.22256344  0.55538495  0.15791141
   0.22365943  0.88921394  0.15749492
   0.55780139  0.21963800  0.15714219
   0.55780139  0.55589394  0.15714219
   0.55536790  0.88898272  0.15495941
   0.89060678  0.22136328  0.15739445
   0.88635545  0.55698203  0.15574252
   0.88635545  0.88999585  0.15574252
   0.99647415  0.99613406  0.23957932
   0.99647415  0.34072512  0.23957932
   0.99435346  0.66948994  0.24054252
   0.34770348  0.99281492  0.24549147
   0.33368375  0.33414068  0.23618083
   0.33368375  0.66550890  0.23618083
   0.66850284  0.98209678  0.25371543
   0.66367947  0.33482693  0.23619413
   0.66850284  0.68273371  0.25371543
   0.11037215  0.11148059  0.27729135
   0.66246440  0.83543447  0.27624915
Direct configuration=     5
   0.00000000  0.00000000  0.00000000
   0.00000000  0.33333333  0.00000000
   0.00000000  0.66666667  0.00000000
   0.33333333  0.00000000  0.00000000
   0.33333333  0.33333333  0.00000000
   0.33333333  0.66666667  0.00000000
   0.66666667  0.00000000  0.00000000
   0.66666667  0.33333333  0.00000000
   0.66666667  0.66666667  0.00000000
   0.11111111  0.11111111  0.07819471
   0.11111111  0.44444444  0.07819471
   0.11111111  0.77777778  0.07819471
   0.44444444  0.11111111  0.07819471
   0.44444444  0.44444444  0.07819471
   0.44444444  0.77777778  0.07819471
   0.77777778  0.11111111  0.07819471
   0.77777778  0.44444444  0.07819471
   0.77777778  0.77777778  0.07819471
   0.22248220  0.22108256  0.15720629
   0.22235548  0.55548893  0.15719455
   0.22248220  0.88976858  0.15720629
   0.55654603  0.22107572  0.15685805
   0.55654603  0.55571159  0.15685805
   0.55515297  0.88909018  0.15577365
   0.89037789  0.22147772  0.15716234
   0.88794085  0.55585909  0.15611623
   0.88794085  0.88953339  0.15611623
   0.99563996  0.99549118  0.23879904
   0.99563996  0.34220219  0.23879904
   0.99709580  0.66811877  0.23736802
   0.34525496  0.99403919  0.24138538
   0.33404580  0.33424569  0.23608100
   0.33404580  0.66504184  0.23608100
   0.66768695  0.99173398  0.24313066
   0.66424154  0.33454590  0.23608681
   0.66768695  0.67391241  0.24313066
   0.11078785  0.11127274  0.27808104
   0.66504536  0.83414398  0.30459309
Direct configuration=     6
   0.00000000  0.00000000  0.00000000
   0.00000000  0.33333333  0.00000000
   0.00000000  0.66666667  0.00000000
   0.33333333  0.00000000  0.00000000
   0.33333333  0.33333333  0.00000000
   0.33333333  0.66666667  0.00000000
   0.66666667  0.00000000  0.00000000
   0.66666667  0.33333333  0.00000000
   0.66666667  0.66666667  0.00000000
   0.11111111  0.11111111  0.07819471
   0.11111111  0.44444444  0.07819471
   0.11111111  0.77777778  0.07819471
   0.44444444  0.11111111  0.07819471
   0.44444444  0.44444444  0.07819471
   0.44444444  0.77777778  0.07819471
   0.77777778  0.11111111  0.07819471
   0.77777778  0.44444444  0.07819471
   0.77777778  0.77777778  0.07819471
   0.22307081  0.22077126  0.15735060
   0.22245946  0.55543694  0.15755298
   0.22307081  0.88949126  0.15735060
   0.55717371  0.22035686  0.15700012
   0.55717371  0.55580276  0.15700012
   0.55526043  0.88903645  0.15536653
   0.89049234  0.22142050  0.15727840
   0.88714815  0.55642056  0.15592938
   0.88714815  0.88976462  0.15592938
   0.99605706  0.99581262  0.23918918
   0.99605706  0.34146366  0.23918918
   0.99572463  0.66880435  0.23895527
   0.34647922  0.99342706  0.24343842
   0.33386478  0.33419319  0.23613091
   0.33386478  0.66527537  0.23613091
   0.66809490  0.98691538  0.24842304
   0.66396050  0.33468642  0.23614047
   0.66809490  0.67832306  0.24842304
   0.11058000  0.11137667  0.27768619
   0.66375488  0.83478923  0.29042112
Direct configuration=     7
   0.00000000  0.00000000  0.00000000
   0.00000000  0.33333333  0.00000000
   0.00000000  0.66666667  0.00000000
   0.33333333  0.00000000  0.00000000
   0.33333333  0.33333333  0.00000000
   0.33333333  0.66666667  0.00000000
   0.66666667  0.00000000  0.00000000
   0.66666667  0.33333333  0.00000000
   0.66666667  0.66666667  0.00000000
   0.11111111  0.11111111  0.07819471
   0.11111111  0.44444444  0.07819471
   0.11111111  0.77777778  0.07819471
   0.44444444  0.11111111  0.07819471
   0.44444444  0.44444444  0.07819471
   0.44444444  0.77777778  0.07819471
   0.77777778  0.11111111  0.07819471
   0.77777778  0.44444444  0.07819471
   0.77777778  0.77777778  0.07819471
   0.22265314  0.22099215  0.15724820
   0.22238568  0.55547383  0.15729864
   0.22265314  0.88968804  0.15724820
   0.55672832  0.22086694  0.15689931
   0.55672832  0.55573807  0.15689931
   0.55518418  0.88907458  0.15565542
   0.89041113  0.22146110  0.15719604
   0.88771064  0.55602215  0.15606197
   0.88771064  0.88960054  0.15606197
   0.99576109  0.99558453  0.23891234
   0.99576109  0.34198771  0.23891234
   0.99669758  0.66831787  0.23782899
   0.34561051  0.99386141  0.24198163
   0.33399323  0.33423044  0.23609549
   0.33399323  0.66510966  0.23609549
   0.66780543  0.99033455  0.24466768
   0.66415992  0.33458671  0.23610240
   0.66780543  0.67519336  0.24466768
   0.11072748  0.11130293  0.27796637
   0.66467058  0.83433138  0.30047724
Direct configuration=     8
   0.00000000  0.00000000  0.00000000
   0.00000000  0.33333333  0.00000000
   0.00000000  0.66666667  0.00000000
   0.33333333  0.00000000  0.00000000
   0.33333333  0.33333333  0.00000000
   0.33333333  0.66666667  0.00000000
   0.66666667  0.00000000  0.00000000
   0.66666667  0.33333333  0.00000000
   0.66666667  0.66666667  0.00000000
   0.11111111  0.11111111  0.07819471
   0.11111111  0.44444444  0.07819471
   0.11111111  0.77777778  0.07819471
   0.44444444  0.11111111  0.07819471
   0.44444444  0.44444444  0.07819471
   0.44444444  0.77777778  0.07819471
   0.77777778  0.11111111  0.07819471
   0.77777778  0.44444444  0.07819471
   0.77777778  0.77777778  0.07819471
   0.22271253  0.22096074  0.15726276
   0.22239617  0.55546858  0.15733481
   0.22271253  0.88966006  0.15726276
   0.55679165  0.22079442  0.15691364
   0.55679165  0.55574727  0.15691364
   0.55519502  0.88906916  0.15561434
   0.89042268  0.22145533  0.15720775
   0.88763066  0.55607880  0.15604311
   0.88763066  0.88962387  0.15604311
   0.99580318  0.99561697  0.23895171
   0.99580318  0.34191319  0.23895171
   0.99655924  0.66838705  0.23798913
   0.34573403  0.99379965  0.24218876
   0.33397497  0.33422514  0.23610053
   0.33397497  0.66513322  0.23610053
   0.66784658  0.98984839  0.24520164
   0.66413156  0.33460089  0.23610781
   0.66784658  0.67563836  0.24520164
   0.11070651  0.11131341  0.27792653
   0.66454038  0.83439648  0.29904740
Direct configuration=     9
   0.00000000  0.00000000  0.00000000
   0.00000000  0.33333333  0.00000000
   0.00000000  0.66666667  0.00000000
   0.33333333  0.00000000  0.00000000
   0.33333333  0.33333333  0.00000000
   0.33333333  0.66666667  0.00000000
   0.66666667  0.00000000  0.00000000
   0.66666667  0.33333333  0.00000000
   0.66666667  0.66666667  0.00000000
   0.11111111  0.11111111  0.07819471
   0.11111111  0.44444444  0.07819471
   0.11111111  0.77777778  0.07819471
   0.44444444  0.11111111  0.07819471
   0.44444444  0.44444444  0.07819471
   0.44444444  0.77777778  0.07819471
   0.77777778  0.11111111  0.07819471
   0.77777778  0.44444444  0.07819471
   0.77777778  0.77777778  0.07819471
   0.22259016  0.22076484  0.15751499
   0.22188470  0.55572432  0.15767401
   0.22259016  0.88997834  0.15751499
   0.55755162  0.21956623  0.15748352
   0.55755162  0.55621549  0.15748352
   0.55579422  0.88876956  0.15696853
   0.89055818  0.22138757  0.15742741
   0.88705273  0.55666009  0.15693228
   0.88705273  0.88962052  0.15693228
   0.99334942  0.99433179  0.23836511
   0.99334942  0.34565213  0.23836511
   0.99865696  0.66733819  0.23846678
   0.34941952  0.99195690  0.24233280
   0.33451054  0.33371676  0.23609888
   0.33451054  0.66510603  0.23609888
   0.66860407  0.00142482  0.24594256
   0.66432744  0.33450295  0.23606398
   0.66860407  0.66330445  0.24594256
   0.10688596  0.11322369  0.27959632
   0.66464441  0.83434446  0.29160388
Direct configuration=    10
   0.00000000  0.00000000  0.00000000
   0.00000000  0.33333333  0.00000000
   0.00000000  0.66666667  0.00000000
   0.33333333  0.00000000  0.00000000
   0.33333333  0.33333333  0.00000000
   0.33333333  0.66666667  0.00000000
   0.66666667  0.00000000  0.00000000
   0.66666667  0.33333333  0.00000000
   0.66666667  0.66666667  0.00000000
   0.11111111  0.11111111  0.07819471
   0.11111111  0.44444444  0.07819471
   0.11111111  0.77777778  0.07819471
   0.44444444  0.11111111  0.07819471
   0.44444444  0.44444444  0.07819471
   0.44444444  0.77777778  0.07819471
   0.77777778  0.11111111  0.07819471
   0.77777778  0.44444444  0.07819471
   0.77777778  0.77777778  0.07819471
   0.22258630  0.22075867  0.15752293
   0.22186859  0.55573237  0.15768469
   0.22258630  0.88998836  0.15752293
   0.55757555  0.21952756  0.15750147
   0.55757555  0.55623023  0.15750147
   0.55581309  0.88876012  0.15701117
   0.89056245  0.22138544  0.15743433
   0.88703453  0.55667839  0.15696028
   0.88703453  0.88962041  0.15696028
   0.99327214  0.99429132  0.23834664
   0.99327214  0.34576987  0.23834664
   0.99872302  0.66730516  0.23848182
   0.34953559  0.99189887  0.24233733
   0.33452741  0.33370075  0.23609883
   0.33452741  0.66510517  0.23609883
   0.66862792  0.00178938  0.24596589
   0.66433361  0.33449986  0.23606260
   0.66862792  0.66291603  0.24596589
   0.10676565  0.11328384  0.27964891
   0.66464768  0.83434283  0.29136948
Direct configuration=    11
   0.00000000  0.00000000  0.00000000
   0.00000000  0.33333333  0.00000000
   0.00000000  0.66666667  0.00000000
   0.33333333  0.00000000  0.00000000
   0.33333333  0.33333333  0.00000000
   0.33333333  0.66666667  0.00000000
   0.66666667  0.00000000  0.00000000
   0.66666667  0.33333333  0.00000000
   0.66666667  0.66666667  0.00000000
   0.11111111  0.11111111  0.07819471
   0.11111111  0.44444444  0.07819471
   0.11111111  0.77777778  0.07819471
   0.44444444  0.11111111  0.07819471
   0.44444444  0.44444444  0.07819471
   0.44444444  0.77777778  0.07819471
   0.77777778  0.11111111  0.07819471
   0.77777778  0.44444444  0.07819471
   0.77777778  0.77777778  0.07819471
   0.22233608  0.22061690  0.15772842
   0.22155590  0.55588872  0.15787452
   0.22233608  0.89038035  0.15772842
   0.55794274  0.21884864  0.15793446
   0.55794274  0.55654195  0.15793446
   0.55643380  0.88844977  0.15837754
   0.89070900  0.22131217  0.15754525
   0.88658794  0.55745820  0.15780371
   0.88658794  0.88928720  0.15780371
   0.99402438  0.99480283  0.23818020
   0.99402438  0.34450613  0.23818020
   0.99920294  0.66706520  0.23880688
   0.34972336  0.99180498  0.24284851
   0.33452451  0.33360247  0.23613966
   0.33452451  0.66520635  0.23613966
   0.66904179  0.01785229  0.24395769
   0.66475352  0.33428991  0.23608688
   0.66904179  0.64643926  0.24395769
   0.10375881  0.11478726  0.27993958
   0.66465564  0.83433885  0.28903473
Direct configuration=    12
   0.00000000  0.00000000  0.00000000
   0.00000000  0.33333333  0.00000000
   0.00000000  0.66666667  0.00000000
   0.33333333  0.00000000  0.00000000
   0.33333333  0.33333333  0.00000000
   0.33333333  0.66666667  0.00000000
   0.66666667  0.00000000  0.00000000
   0.66666667  0.33333333  0.00000000
   0.66666667  0.66666667  0.00000000
   0.11111111  0.11111111  0.07819471
   0.11111111  0.44444444  0.07819471
   0.11111111  0.77777778  0.07819471
   0.44444444  0.11111111  0.07819471
   0.44444444  0.44444444  0.07819471
   0.44444444  0.77777778  0.07819471
   0.77777778  0.11111111  0.07819471
   0.77777778  0.44444444  0.07819471
   0.77777778  0.77777778  0.07819471
   0.22235240  0.22062614  0.15771502
   0.22157629  0.55587852  0.15786214
   0.22235240  0.89035480  0.15771502
   0.55791880  0.21889291  0.15790623
   0.55791880  0.55652163  0.15790623
   0.55639333  0.88847000  0.15828845
   0.89069944  0.22131695  0.15753802
   0.88661705  0.55740736  0.15774872
   0.88661705  0.88930892  0.15774872
   0.99397533  0.99476948  0.23819105
   0.99397533  0.34458852  0.23819105
   0.99917165  0.66708084  0.23878568
   0.34971112  0.99181111  0.24281518
   0.33452470  0.33360888  0.23613700
   0.33452470  0.66519976  0.23613700
   0.66901481  0.01680501  0.24408863
   0.66472614  0.33430360  0.23608530
   0.66901481  0.64751352  0.24408863
   0.10395485  0.11468924  0.27992063
   0.66465512  0.83433911  0.28918696
Direct configuration=    13
   0.00000000  0.00000000  0.00000000
   0.00000000  0.33333333  0.00000000
   0.00000000  0.66666667  0.00000000
   0.33333333  0.00000000  0.00000000
   0.33333333  0.33333333  0.00000000
   0.33333333  0.66666667  0.00000000
   0.66666667  0.00000000  0.00000000
   0.66666667  0.33333333  0.00000000
   0.66666667  0.66666667  0.00000000
   0.11111111  0.11111111  0.07819471
   0.11111111  0.44444444  0.07819471
   0.11111111  0.77777778  0.07819471
   0.44444444  0.11111111  0.07819471
   0.44444444  0.44444444  0.07819471
   0.44444444  0.77777778  0.07819471
   0.77777778  0.11111111  0.07819471
   0.77777778  0.44444444  0.07819471
   0.77777778  0.77777778  0.07819471
   0.22225729  0.22055903  0.15775144
   0.22158602  0.55587366  0.15783475
   0.22225729  0.89051701  0.15775144
   0.55758528  0.21929796  0.15784958
   0.55758528  0.55645010  0.15784958
   0.55653767  0.88839783  0.15886960
   0.89080925  0.22126204  0.15743136
   0.88666867  0.55780866  0.15803838
   0.88666867  0.88885601  0.15803838
   0.99746179  0.99544839  0.23831572
   0.99746179  0.34042316  0.23831572
   0.99633052  0.66850141  0.23909509
   0.35025573  0.99153880  0.24366554
   0.33336377  0.33464015  0.23620533
   0.33336377  0.66532942  0.23620533
   0.66823007  0.01887525  0.24295732
   0.66495890  0.33418722  0.23611251
   0.66823007  0.64622801  0.24295732
   0.10371921  0.11480706  0.27941925
   0.66455803  0.83438765  0.28725402
Direct configuration=    14
   0.00000000  0.00000000  0.00000000
   0.00000000  0.33333333  0.00000000
   0.00000000  0.66666667  0.00000000
   0.33333333  0.00000000  0.00000000
   0.33333333  0.33333333  0.00000000
   0.33333333  0.66666667  0.00000000
   0.66666667  0.00000000  0.00000000
   0.66666667  0.33333333  0.00000000
   0.66666667  0.66666667  0.00000000
   0.11111111  0.11111111  0.07819471
   0.11111111  0.44444444  0.07819471
   0.11111111  0.77777778  0.07819471
   0.44444444  0.11111111  0.07819471
   0.44444444  0.44444444  0.07819471
   0.44444444  0.77777778  0.07819471
   0.77777778  0.11111111  0.07819471
   0.77777778  0.44444444  0.07819471
   0.77777778  0.77777778  0.07819471
   0.22209547  0.22044484  0.15781342
   0.22160259  0.55586537  0.15778815
   0.22209547  0.89079302  0.15781342
   0.55701779  0.21998716  0.15775318
   0.55701779  0.55632839  0.15775318
   0.55678327  0.88827503  0.15985843
   0.89099610  0.22116862  0.15724989
   0.88675649  0.55849148  0.15853125
   0.88675649  0.88808536  0.15853125
   0.00339409  0.99660356  0.23852784
   0.00339409  0.33333568  0.23852784
   0.99149626  0.67091854  0.23962155
   0.35118239  0.99107547  0.24511245
   0.33138842  0.33639488  0.23632158
   0.33138842  0.66555004  0.23632158
   0.66689481  0.02239782  0.24103238
   0.66535494  0.33398920  0.23615882
   0.66689481  0.64404070  0.24103238
   0.10331826  0.11500754  0.27856615
   0.66439283  0.83447025  0.28396508
Direct configuration=    15
   0.00000000  0.00000000  0.00000000
   0.00000000  0.33333333  0.00000000
   0.00000000  0.66666667  0.00000000
   0.33333333  0.00000000  0.00000000
   0.33333333  0.33333333  0.00000000
   0.33333333  0.66666667  0.00000000
   0.66666667  0.00000000  0.00000000
   0.66666667  0.33333333  0.00000000
   0.66666667  0.66666667  0.00000000
   0.11111111  0.11111111  0.07819471
   0.11111111  0.44444444  0.07819471
   0.11111111  0.77777778  0.07819471
   0.44444444  0.11111111  0.07819471
   0.44444444  0.44444444  0.07819471
   0.44444444  0.77777778  0.07819471
   0.77777778  0.11111111  0.07819471
   0.77777778  0.44444444  0.07819471
   0.77777778  0.77777778  0.07819471
   0.22214270  0.22047817  0.15779533
   0.22159775  0.55586779  0.15780175
   0.22214270  0.89071246  0.15779533
   0.55718343  0.21978599  0.15778132
   0.55718343  0.55636391  0.15778132
   0.55671159  0.88831087  0.15956980
   0.89094156  0.22119589  0.15730286
   0.88673085  0.55829218  0.15838739
   0.88673085  0.88831030  0.15838739
   0.00166253  0.99626638  0.23846592
   0.00166253  0.33540442  0.23846592
   0.99290731  0.67021301  0.23946788
   0.35091191  0.99121071  0.24469012
   0.33196499  0.33588270  0.23628765
   0.33196499  0.66548564  0.23628765
   0.66728456  0.02136963  0.24159424
   0.66523934  0.33404700  0.23614530
   0.66728456  0.64467914  0.24159424
   0.10343529  0.11494902  0.27881516
   0.66444105  0.83444614  0.28492508
Direct configuration=    16
   0.00000000  0.00000000  0.00000000
   0.00000000  0.33333333  0.00000000
   0.00000000  0.66666667  0.00000000
   0.33333333  0.00000000  0.00000000
   0.33333333  0.33333333  0.00000000
   0.33333333  0.66666667  0.00000000
   0.66666667  0.00000000  0.00000000
   0.66666667  0.33333333  0.00000000
   0.66666667  0.66666667  0.00000000
   0.11111111  0.11111111  0.07819471
   0.11111111  0.44444444  0.07819471
   0.11111111  0.77777778  0.07819471
   0.44444444  0.11111111  0.07819471
   0.44444444  0.44444444  0.07819471
   0.44444444  0.77777778  0.07819471
   0.77777778  0.11111111  0.07819471
   0.77777778  0.44444444  0.07819471
   0.77777778  0.77777778  0.07819471
   0.22215674  0.22042805  0.15778105
   0.22152736  0.55590299  0.15777942
   0.22215674  0.89074855  0.15778105
   0.55685404  0.22022468  0.15765966
   0.55685404  0.55625462  0.15765966
   0.55660809  0.88836262  0.15982846
   0.89095571  0.22118881  0.15721119
   0.88689774  0.55828734  0.15850976
   0.88689774  0.88814826  0.15850976
   0.00292173  0.99554816  0.23826248
   0.00292173  0.33486344  0.23826248
   0.99034253  0.67149540  0.23975056
   0.35274543  0.99029395  0.24530306
   0.33103955  0.33687478  0.23632767
   0.33103955  0.66541900  0.23632767
   0.66702764  0.02170685  0.24077422
   0.66541501  0.33395916  0.23614707
   0.66702764  0.64459884  0.24077422
   0.10442597  0.11445368  0.27916999
   0.66450114  0.83441610  0.28352083
Direct configuration=    17
   0.00000000  0.00000000  0.00000000
   0.00000000  0.33333333  0.00000000
   0.00000000  0.66666667  0.00000000
   0.33333333  0.00000000  0.00000000
   0.33333333  0.33333333  0.00000000
   0.33333333  0.66666667  0.00000000
   0.66666667  0.00000000  0.00000000
   0.66666667  0.33333333  0.00000000
   0.66666667  0.66666667  0.00000000
   0.11111111  0.11111111  0.07819471
   0.11111111  0.44444444  0.07819471
   0.11111111  0.77777778  0.07819471
   0.44444444  0.11111111  0.07819471
   0.44444444  0.44444444  0.07819471
   0.44444444  0.77777778  0.07819471
   0.77777778  0.11111111  0.07819471
   0.77777778  0.44444444  0.07819471
   0.77777778  0.77777778  0.07819471
   0.22219884  0.22027767  0.15773822
   0.22131616  0.55600859  0.15771241
   0.22219884  0.89085682  0.15773822
   0.55586586  0.22154074  0.15729470
   0.55586586  0.55592673  0.15729470
   0.55629761  0.88851786  0.16060443
   0.89099816  0.22116758  0.15693617
   0.88739839  0.55827282  0.15887688
   0.88739839  0.88766213  0.15887688
   0.00669931  0.99339349  0.23765217
   0.00669931  0.33324053  0.23765217
   0.98264817  0.67534258  0.24059859
   0.35824599  0.98754367  0.24714189
   0.32826323  0.33985103  0.23644772
   0.32826323  0.66521908  0.23644772
   0.66625690  0.02271848  0.23831416
   0.66594203  0.33369565  0.23615237
   0.66625690  0.64435795  0.23831416
   0.10739801  0.11296766  0.28023448
   0.66468143  0.83432595  0.27930808
Direct configuration=    18
   0.00000000  0.00000000  0.00000000
   0.00000000  0.33333333  0.00000000
   0.00000000  0.66666667  0.00000000
   0.33333333  0.00000000  0.00000000
   0.33333333  0.33333333  0.00000000
   0.33333333  0.66666667  0.00000000
   0.66666667  0.00000000  0.00000000
   0.66666667  0.33333333  0.00000000
   0.66666667  0.66666667  0.00000000
   0.11111111  0.11111111  0.07819471
   0.11111111  0.44444444  0.07819471
   0.11111111  0.77777778  0.07819471
   0.44444444  0.11111111  0.07819471
   0.44444444  0.44444444  0.07819471
   0.44444444  0.77777778  0.07819471
   0.77777778  0.11111111  0.07819471
   0.77777778  0.44444444  0.07819471
   0.77777778  0.77777778  0.07819471
   0.22221658  0.22021431  0.15772018
   0.22122718  0.55605308  0.15768417
   0.22221658  0.89090244  0.15772018
   0.55544949  0.22209526  0.15714093
   0.55544949  0.55578858  0.15714093
   0.55616679  0.88858327  0.16093138
   0.89101605  0.22115864  0.15682029
   0.88760933  0.55826670  0.15903156
   0.88760933  0.88745730  0.15903156
   0.00829098  0.99248563  0.23739501
   0.00829098  0.33255672  0.23739501
   0.97940619  0.67696357  0.24095590
   0.36056363  0.98638485  0.24791667
   0.32709343  0.34110506  0.23649831
   0.32709343  0.66513484  0.23649831
   0.66593215  0.02314473  0.23727762
   0.66616409  0.33358462  0.23615460
   0.66593215  0.64425645  0.23727762
   0.10865026  0.11234154  0.28068300
   0.66475740  0.83428797  0.27753305
Direct configuration=    19
   0.00000000  0.00000000  0.00000000
   0.00000000  0.33333333  0.00000000
   0.00000000  0.66666667  0.00000000
   0.33333333  0.00000000  0.00000000
   0.33333333  0.33333333  0.00000000
   0.33333333  0.66666667  0.00000000
   0.66666667  0.00000000  0.00000000
   0.66666667  0.33333333  0.00000000
   0.66666667  0.66666667  0.00000000
   0.11111111  0.11111111  0.07819471
   0.11111111  0.44444444  0.07819471
   0.11111111  0.77777778  0.07819471
   0.44444444  0.11111111  0.07819471
   0.44444444  0.44444444  0.07819471
   0.44444444  0.77777778  0.07819471
   0.77777778  0.11111111  0.07819471
   0.77777778  0.44444444  0.07819471
   0.77777778  0.77777778  0.07819471
   0.22256329  0.22004219  0.15762018
   0.22069399  0.55631967  0.15767620
   0.22256329  0.89072785  0.15762018
   0.55491111  0.22290279  0.15681087
   0.55491111  0.55551943  0.15681087
   0.55543849  0.88894742  0.16058670
   0.89088076  0.22122629  0.15676870
   0.88811383  0.55763513  0.15875571
   0.88811383  0.88758437  0.15875571
   0.00814866  0.99229918  0.23722258
   0.00814866  0.33288549  0.23722258
   0.97632649  0.67850342  0.24152067
   0.36330585  0.98501374  0.24878327
   0.32639312  0.34221281  0.23651256
   0.32639312  0.66472741  0.23651256
   0.66614910  0.02564842  0.23594514
   0.66665071  0.33334131  0.23611608
   0.66614910  0.64153582  0.23594514
   0.10985418  0.11173958  0.28122136
   0.66574616  0.83379358  0.27685497
Direct configuration=    20
   0.00000000  0.00000000  0.00000000
   0.00000000  0.33333333  0.00000000
   0.00000000  0.66666667  0.00000000
   0.33333333  0.00000000  0.00000000
   0.33333333  0.33333333  0.00000000
   0.33333333  0.66666667  0.00000000
   0.66666667  0.00000000  0.00000000
   0.66666667  0.33333333  0.00000000
   0.66666667  0.66666667  0.00000000
   0.11111111  0.11111111  0.07819471
   0.11111111  0.44444444  0.07819471
   0.11111111  0.77777778  0.07819471
   0.44444444  0.11111111  0.07819471
   0.44444444  0.44444444  0.07819471
   0.44444444  0.77777778  0.07819471
   0.77777778  0.11111111  0.07819471
   0.77777778  0.44444444  0.07819471
   0.77777778  0.77777778  0.07819471
   0.22290160  0.21987424  0.15752261
   0.22017373  0.55657980  0.15766842
   0.22290160  0.89055750  0.15752261
   0.55438579  0.22369074  0.15648882
   0.55438579  0.55525681  0.15648882
   0.55472785  0.88930274  0.16025038
   0.89074875  0.22129229  0.15671835
   0.88860609  0.55701888  0.15848656
   0.88860609  0.88770836  0.15848656
   0.00800979  0.99211726  0.23705433
   0.00800979  0.33320628  0.23705433
   0.97332149  0.68000592  0.24207174
   0.36598154  0.98367589  0.24962885
   0.32570979  0.34329368  0.23652647
   0.32570979  0.66432986  0.23652647
   0.66636078  0.02809137  0.23464498
   0.66712554  0.33310390  0.23607850
   0.66636078  0.63888118  0.23464498
   0.11102890  0.11115222  0.28174666
   0.66671095  0.83331119  0.27619334
Direct configuration=    21
   0.00000000  0.00000000  0.00000000
   0.00000000  0.33333333  0.00000000
   0.00000000  0.66666667  0.00000000
   0.33333333  0.00000000  0.00000000
   0.33333333  0.33333333  0.00000000
   0.33333333  0.66666667  0.00000000
   0.66666667  0.00000000  0.00000000
   0.66666667  0.33333333  0.00000000
   0.66666667  0.66666667  0.00000000