  38  38   1   0
  0.3386168E+02  0.7529542E-09  0.7529542E-09  0.2620742E-08  0.5000000E-15
  1.000000000000000E-004
  CAR 
 unknown system                          
     11.62448232    -75.15271059  301     -0.97469548      1.00000000
    -75.153  0.0000E+00  0.0000E+00
    -74.863  0.0000E+00  0.0000E+00
    -74.574  0.0000E+00  0.0000E+00
    -74.285  0.0000E+00  0.0000E+00
    -73.996  0.0000E+00  0.0000E+00
    -73.706  0.0000E+00  0.0000E+00
    -73.417  0.0000E+00  0.0000E+00
    -73.128  0.0000E+00  0.0000E+00
    -72.839  0.0000E+00  0.0000E+00
    -72.549  0.0000E+00  0.0000E+00
    -72.260  0.0000E+00  0.0000E+00
    -71.971  0.0000E+00  0.0000E+00
    -71.682  0.5896E-12  0.1706E-12
    -71.392  0.3775E-03  0.1092E-03
    -71.103  0.5885E+00  0.1703E+00
    -70.814  0.2938E+01  0.1020E+01
    -70.525  0.1441E+01  0.1437E+01
    -70.235  0.1063E-01  0.1440E+01
    -69.946  0.1313E-08  0.1440E+01
    -69.657  0.0000E+00  0.1440E+01
    -69.368  0.0000E+00  0.1440E+01
    -69.078  0.0000E+00  0.1440E+01
    -68.789  0.0000E+00  0.1440E+01
    -68.500  0.0000E+00  0.1440E+01
    -68.211  0.0000E+00  0.1440E+01
    -67.921  0.0000E+00  0.1440E+01
    -67.632  0.0000E+00  0.1440E+01
    -67.343  0.0000E+00  0.1440E+01
    -67.054  0.0000E+00  0.1440E+01
    -66.764  0.0000E+00  0.1440E+01
    -66.475  0.0000E+00  0.1440E+01
    -66.186  0.0000E+00  0.1440E+01
    -65.896  0.0000E+00  0.1440E+01
    -65.607  0.0000E+00  0.1440E+01
    -65.318  0.0000E+00  0.1440E+01
    -65.029  0.0000E+00  0.1440E+01
    -64.739  0.0000E+00  0.1440E+01
    -64.450  0.0000E+00  0.1440E+01
    -64.161  0.0000E+00  0.1440E+01
    -63.872  0.0000E+00  0.1440E+01
    -63.582  0.0000E+00  0.1440E+01
    -63.293  0.0000E+00  0.1440E+01
    -63.004  0.0000E+00  0.1440E+01
    -62.715  0.0000E+00  0.1440E+01
    -62.425  0.0000E+00  0.1440E+01
    -62.136  0.0000E+00  0.1440E+01
    -61.847  0.0000E+00  0.1440E+01
    -61.558  0.0000E+00  0.1440E+01
    -61.268  0.0000E+00  0.1440E+01
    -60.979  0.0000E+00  0.1440E+01
    -60.690  0.0000E+00  0.1440E+01
    -60.401  0.0000E+00  0.1440E+01
    -60.111  0.0000E+00  0.1440E+01
    -59.822  0.0000E+00  0.1440E+01
    -59.533  0.0000E+00  0.1440E+01
    -59.244  0.0000E+00  0.1440E+01
    -58.954  0.0000E+00  0.1440E+01
    -58.665  0.0000E+00  0.1440E+01
    -58.376  0.0000E+00  0.1440E+01
    -58.087  0.0000E+00  0.1440E+01
    -57.797  0.0000E+00  0.1440E+01
    -57.508  0.0000E+00  0.1440E+01
    -57.219  0.0000E+00  0.1440E+01
    -56.930  0.0000E+00  0.1440E+01
    -56.640  0.0000E+00  0.1440E+01
    -56.351  0.0000E+00  0.1440E+01
    -56.062  0.0000E+00  0.1440E+01
    -55.772  0.0000E+00  0.1440E+01
    -55.483  0.0000E+00  0.1440E+01
    -55.194  0.0000E+00  0.1440E+01
    -54.905  0.0000E+00  0.1440E+01
    -54.615  0.0000E+00  0.1440E+01
    -54.326  0.0000E+00  0.1440E+01
    -54.037  0.0000E+00  0.1440E+01
    -53.748  0.0000E+00  0.1440E+01
    -53.458  0.0000E+00  0.1440E+01
    -53.169  0.0000E+00  0.1440E+01
    -52.880  0.0000E+00  0.1440E+01
    -52.591  0.0000E+00  0.1440E+01
    -52.301  0.0000E+00  0.1440E+01
    -52.012  0.0000E+00  0.1440E+01
    -51.723  0.0000E+00  0.1440E+01
    -51.434  0.0000E+00  0.1440E+01
    -51.144  0.0000E+00  0.1440E+01
    -50.855  0.0000E+00  0.1440E+01
    -50.566  0.0000E+00  0.1440E+01
    -50.277  0.0000E+00  0.1440E+01
    -49.987  0.0000E+00  0.1440E+01
    -49.698  0.0000E+00  0.1440E+01
    -49.409  0.0000E+00  0.1440E+01
    -49.120  0.0000E+00  0.1440E+01
    -48.830  0.0000E+00  0.1440E+01
    -48.541  0.0000E+00  0.1440E+01
    -48.252  0.0000E+00  0.1440E+01
    -47.963  0.0000E+00  0.1440E+01
    -47.673  0.0000E+00  0.1440E+01
    -47.384  0.0000E+00  0.1440E+01
    -47.095  0.0000E+00  0.1440E+01
    -46.805  0.0000E+00  0.1440E+01
    -46.516  0.0000E+00  0.1440E+01
    -46.227  0.0000E+00  0.1440E+01
    -45.938  0.0000E+00  0.1440E+01
    -45.648  0.0000E+00  0.1440E+01
    -45.359  0.0000E+00  0.1440E+01
    -45.070  0.0000E+00  0.1440E+01
    -44.781  0.0000E+00  0.1440E+01
    -44.491  0.0000E+00  0.1440E+01
    -44.202  0.0000E+00  0.1440E+01
    -43.913  0.0000E+00  0.1440E+01
    -43.624  0.0000E+00  0.1440E+01
    -43.334  0.0000E+00  0.1440E+01
    -43.045  0.0000E+00  0.1440E+01
    -42.756  0.0000E+00  0.1440E+01
    -42.467  0.0000E+00  0.1440E+01
    -42.177  0.0000E+00  0.1440E+01
    -41.888  0.0000E+00  0.1440E+01
    -41.599  0.0000E+00  0.1440E+01
    -41.310  0.0000E+00  0.1440E+01
    -41.020  0.0000E+00  0.1440E+01
    -40.731  0.0000E+00  0.1440E+01
    -40.442  0.0000E+00  0.1440E+01
    -40.153  0.0000E+00  0.1440E+01
    -39.863  0.0000E+00  0.1440E+01
    -39.574  0.0000E+00  0.1440E+01
    -39.285  0.0000E+00  0.1440E+01
    -38.996  0.0000E+00  0.1440E+01
    -38.706  0.0000E+00  0.1440E+01
    -38.417  0.0000E+00  0.1440E+01
    -38.128  0.0000E+00  0.1440E+01
    -37.839  0.0000E+00  0.1440E+01
    -37.549  0.0000E+00  0.1440E+01
    -37.260  0.0000E+00  0.1440E+01
    -36.971  0.0000E+00  0.1440E+01
    -36.681  0.0000E+00  0.1440E+01
    -36.392  0.0000E+00  0.1440E+01
    -36.103  0.0000E+00  0.1440E+01
    -35.814  0.0000E+00  0.1440E+01
    -35.524  0.0000E+00  0.1440E+01
    -35.235  0.0000E+00  0.1440E+01
    -34.946  0.0000E+00  0.1440E+01
    -34.657  0.0000E+00  0.1440E+01
    -34.367  0.0000E+00  0.1440E+01
    -34.078  0.0000E+00  0.1440E+01
    -33.789  0.0000E+00  0.1440E+01
    -33.500  0.0000E+00  0.1440E+01
    -33.210  0.0000E+00  0.1440E+01
    -32.921  0.0000E+00  0.1440E+01
    -32.632  0.0000E+00  0.1440E+01
    -32.343  0.0000E+00  0.1440E+01
    -32.053  0.0000E+00  0.1440E+01
    -31.764  0.0000E+00  0.1440E+01
    -31.475  0.0000E+00  0.1440E+01
    -31.186  0.0000E+00  0.1440E+01
    -30.896  0.0000E+00  0.1440E+01
    -30.607  0.0000E+00  0.1440E+01
    -30.318  0.0000E+00  0.1440E+01
    -30.029  0.0000E+00  0.1440E+01
    -29.739  0.0000E+00  0.1440E+01
    -29.450  0.0000E+00  0.1440E+01
    -29.161  0.0000E+00  0.1440E+01
    -28.872  0.0000E+00  0.1440E+01
    -28.582  0.0000E+00  0.1440E+01
    -28.293  0.0000E+00  0.1440E+01
    -28.004  0.0000E+00  0.1440E+01
    -27.715  0.0000E+00  0.1440E+01
    -27.425  0.0000E+00  0.1440E+01
    -27.136  0.0000E+00  0.1440E+01
    -26.847  0.0000E+00  0.1440E+01
    -26.557  0.0000E+00  0.1440E+01
    -26.268  0.0000E+00  0.1440E+01
    -25.979  0.0000E+00  0.1440E+01
    -25.690  0.0000E+00  0.1440E+01
    -25.400  0.0000E+00  0.1440E+01
    -25.111  0.0000E+00  0.1440E+01
    -24.822  0.0000E+00  0.1440E+01
    -24.533  0.0000E+00  0.1440E+01
    -24.243  0.0000E+00  0.1440E+01
    -23.954  0.0000E+00  0.1440E+01
    -23.665  0.0000E+00  0.1440E+01
    -23.376  0.0000E+00  0.1440E+01
    -23.086  0.0000E+00  0.1440E+01
    -22.797  0.0000E+00  0.1440E+01
    -22.508  0.0000E+00  0.1440E+01
    -22.219  0.0000E+00  0.1440E+01
    -21.929  0.0000E+00  0.1440E+01
    -21.640  0.0000E+00  0.1440E+01
    -21.351  0.0000E+00  0.1440E+01
    -21.062  0.0000E+00  0.1440E+01
    -20.772  0.0000E+00  0.1440E+01
    -20.483  0.0000E+00  0.1440E+01
    -20.194  0.0000E+00  0.1440E+01
    -19.905  0.0000E+00  0.1440E+01
    -19.615  0.0000E+00  0.1440E+01
    -19.326  0.0000E+00  0.1440E+01
    -19.037  0.0000E+00  0.1440E+01
    -18.748  0.0000E+00  0.1440E+01
    -18.458  0.0000E+00  0.1440E+01
    -18.169  0.0000E+00  0.1440E+01
    -17.880  0.0000E+00  0.1440E+01
    -17.591  0.0000E+00  0.1440E+01
    -17.301  0.0000E+00  0.1440E+01
    -17.012  0.0000E+00  0.1440E+01
    -16.723  0.0000E+00  0.1440E+01
    -16.433  0.0000E+00  0.1440E+01
    -16.144  0.4725E-07  0.1440E+01
    -15.855  0.1177E-01  0.1443E+01
    -15.566  0.3431E-01  0.1453E+01
    -15.276  0.1377E-04  0.1453E+01
    -14.987  0.0000E+00  0.1453E+01
    -14.698  0.0000E+00  0.1453E+01
    -14.409  0.0000E+00  0.1453E+01
    -14.119  0.0000E+00  0.1453E+01
    -13.830  0.0000E+00  0.1453E+01
    -13.541  0.0000E+00  0.1453E+01
    -13.252  0.0000E+00  0.1453E+01
    -12.962  0.0000E+00  0.1453E+01
    -12.673  0.0000E+00  0.1453E+01
    -12.384  0.0000E+00  0.1453E+01
    -12.095  0.0000E+00  0.1453E+01
    -11.805  0.0000E+00  0.1453E+01
    -11.516  0.0000E+00  0.1453E+01
    -11.227  0.0000E+00  0.1453E+01
    -10.938  0.0000E+00  0.1453E+01
    -10.648  0.1325E-10  0.1453E+01
    -10.359  0.1413E-03  0.1453E+01
    -10.070  0.6585E-02  0.1455E+01
     -9.781  0.1346E-01  0.1459E+01
     -9.491  0.1587E-01  0.1464E+01
     -9.202  0.1836E-01  0.1469E+01
     -8.913  0.3505E-02  0.1470E+01
     -8.624  0.5187E-01  0.1485E+01
     -8.334  0.4689E-01  0.1499E+01
     -8.045  0.4288E-01  0.1511E+01
     -7.756  0.1194E-01  0.1515E+01
     -7.467  0.6548E-01  0.1533E+01
     -7.177  0.4617E-01  0.1547E+01
     -6.888  0.4087E-01  0.1559E+01
     -6.599  0.8102E-01  0.1582E+01
     -6.309  0.1088E+00  0.1614E+01
     -6.020  0.1255E+00  0.1650E+01
     -5.731  0.2497E+00  0.1722E+01
     -5.442  0.2825E+00  0.1804E+01
     -5.152  0.4574E+00  0.1936E+01
     -4.863  0.4598E+00  0.2069E+01
     -4.574  0.5014E+00  0.2214E+01
     -4.285  0.5712E+00  0.2379E+01
     -3.995  0.7706E+00  0.2602E+01
     -3.706  0.9827E+00  0.2886E+01
     -3.417  0.7030E+00  0.3090E+01
     -3.128  0.7644E+00  0.3311E+01
     -2.838  0.8905E+00  0.3569E+01
     -2.549  0.1047E+01  0.3871E+01
     -2.260  0.4500E+00  0.4002E+01
     -1.971  0.1637E+00  0.4049E+01
     -1.681  0.9359E-01  0.4076E+01
     -1.392  0.7277E-01  0.4097E+01
     -1.103  0.7582E-01  0.4119E+01
     -0.814  0.9742E-01  0.4147E+01
     -0.524  0.5749E-01  0.4164E+01
     -0.235  0.1149E+00  0.4197E+01
      0.054  0.4579E-01  0.4210E+01
      0.343  0.5526E-01  0.4226E+01
      0.633  0.9393E-01  0.4253E+01
      0.922  0.7045E-01  0.4274E+01
      1.211  0.6136E-01  0.4292E+01
      1.500  0.8890E-01  0.4317E+01
      1.790  0.6798E-01  0.4337E+01
      2.079  0.5638E-01  0.4353E+01
      2.368  0.4038E-01  0.4365E+01
      2.658  0.4867E-01  0.4379E+01
      2.947  0.5304E-01  0.4394E+01
      3.236  0.6203E-01  0.4412E+01
      3.525  0.5707E-01  0.4429E+01
      3.815  0.7222E-01  0.4450E+01
      4.104  0.9533E-01  0.4477E+01
      4.393  0.9486E-01  0.4505E+01
      4.682  0.1158E+00  0.4538E+01
      4.972  0.1266E+00  0.4575E+01
      5.261  0.1168E+00  0.4609E+01
      5.550  0.1470E+00  0.4651E+01
      5.839  0.1285E+00  0.4688E+01
      6.129  0.1326E+00  0.4727E+01
      6.418  0.1679E+00  0.4775E+01
      6.707  0.1390E+00  0.4815E+01
      6.996  0.1474E+00  0.4858E+01
      7.286  0.1254E+00  0.4894E+01
      7.575  0.1871E+00  0.4948E+01
      7.864  0.3996E-01  0.4960E+01
      8.153  0.6871E-04  0.4960E+01
      8.443  0.1101E-12  0.4960E+01
      8.732  0.0000E+00  0.4960E+01
      9.021  0.0000E+00  0.4960E+01
      9.310  0.0000E+00  0.4960E+01
      9.600  0.0000E+00  0.4960E+01
      9.889  0.0000E+00  0.4960E+01
     10.178  0.0000E+00  0.4960E+01
     10.467  0.0000E+00  0.4960E+01
     10.757  0.0000E+00  0.4960E+01
     11.046  0.0000E+00  0.4960E+01
     11.335  0.0000E+00  0.4960E+01
     11.624  0.0000E+00  0.4960E+01
     11.62448232    -75.15271059  301     -0.97469548      1.00000000
    -75.153  0.0000E+00  0.0000E+00  0.0000E+00
    -74.863  0.0000E+00  0.0000E+00  0.0000E+00
    -74.574  0.0000E+00  0.0000E+00  0.0000E+00
    -74.285  0.0000E+00  0.0000E+00  0.0000E+00
    -73.996  0.0000E+00  0.0000E+00  0.0000E+00
    -73.706  0.0000E+00  0.0000E+00  0.0000E+00
    -73.417  0.0000E+00  0.0000E+00  0.0000E+00
    -73.128  0.0000E+00  0.0000E+00  0.0000E+00
    -72.839  0.0000E+00  0.0000E+00  0.0000E+00
    -72.549  0.0000E+00  0.0000E+00  0.0000E+00
    -72.260  0.0000E+00  0.0000E+00  0.0000E+00
    -71.971  0.0000E+00  0.0000E+00  0.0000E+00
    -71.682  0.4905E-20  0.4255E-17  0.8709E-19
    -71.392  0.1421E-10  0.4887E-07  0.6868E-10
    -71.103  0.2558E-05  0.1551E-01  0.4116E-05
    -70.814  0.2278E-04  0.7039E+01  0.4716E-04
    -70.525  0.2502E-04  0.1360E+02  0.3341E-04
    -70.235  0.5066E-07  0.2161E-01  0.1826E-07
    -69.946  0.7339E-16  0.2758E-10  0.3825E-15
    -69.657  0.0000E+00  0.0000E+00  0.0000E+00
    -69.368  0.0000E+00  0.0000E+00  0.0000E+00
    -69.078  0.0000E+00  0.0000E+00  0.0000E+00
    -68.789  0.0000E+00  0.0000E+00  0.0000E+00
    -68.500  0.0000E+00  0.0000E+00  0.0000E+00
    -68.211  0.0000E+00  0.0000E+00  0.0000E+00
    -67.921  0.0000E+00  0.0000E+00  0.0000E+00
    -67.632  0.0000E+00  0.0000E+00  0.0000E+00
    -67.343  0.0000E+00  0.0000E+00  0.0000E+00
    -67.054  0.0000E+00  0.0000E+00  0.0000E+00
    -66.764  0.0000E+00  0.0000E+00  0.0000E+00
    -66.475  0.0000E+00  0.0000E+00  0.0000E+00
    -66.186  0.0000E+00  0.0000E+00  0.0000E+00
    -65.896  0.0000E+00  0.0000E+00  0.0000E+00
    -65.607  0.0000E+00  0.0000E+00  0.0000E+00
    -65.318  0.0000E+00  0.0000E+00  0.0000E+00
    -65.029  0.0000E+00  0.0000E+00  0.0000E+00
    -64.739  0.0000E+00  0.0000E+00  0.0000E+00
    -64.450  0.0000E+00  0.0000E+00  0.0000E+00
    -64.161  0.0000E+00  0.0000E+00  0.0000E+00
    -63.872  0.0000E+00  0.0000E+00  0.0000E+00
    -63.582  0.0000E+00  0.0000E+00  0.0000E+00
    -63.293  0.0000E+00  0.0000E+00  0.0000E+00
    -63.004  0.0000E+00  0.0000E+00  0.0000E+00
    -62.715  0.0000E+00  0.0000E+00  0.0000E+00
    -62.425  0.0000E+00  0.0000E+00  0.0000E+00
    -62.136  0.0000E+00  0.0000E+00  0.0000E+00
    -61.847  0.0000E+00  0.0000E+00  0.0000E+00
    -61.558  0.0000E+00  0.0000E+00  0.0000E+00
    -61.268  0.0000E+00  0.0000E+00  0.0000E+00
    -60.979  0.0000E+00  0.0000E+00  0.0000E+00
    -60.690  0.0000E+00  0.0000E+00  0.0000E+00
    -60.401  0.0000E+00  0.0000E+00  0.0000E+00
    -60.111  0.0000E+00  0.0000E+00  0.0000E+00
    -59.822  0.0000E+00  0.0000E+00  0.0000E+00
    -59.533  0.0000E+00  0.0000E+00  0.0000E+00
    -59.244  0.0000E+00  0.0000E+00  0.0000E+00
    -58.954  0.0000E+00  0.0000E+00  0.0000E+00
    -58.665  0.0000E+00  0.0000E+00  0.0000E+00
    -58.376  0.0000E+00  0.0000E+00  0.0000E+00
    -58.087  0.0000E+00  0.0000E+00  0.0000E+00
    -57.797  0.0000E+00  0.0000E+00  0.0000E+00
    -57.508  0.0000E+00  0.0000E+00  0.0000E+00
    -57.219  0.0000E+00  0.0000E+00  0.0000E+00
    -56.930  0.0000E+00  0.0000E+00  0.0000E+00
    -56.640  0.0000E+00  0.0000E+00  0.0000E+00
    -56.351  0.0000E+00  0.0000E+00  0.0000E+00
    -56.062  0.0000E+00  0.0000E+00  0.0000E+00
    -55.772  0.0000E+00  0.0000E+00  0.0000E+00
    -55.483  0.0000E+00  0.0000E+00  0.0000E+00
    -55.194  0.0000E+00  0.0000E+00  0.0000E+00
    -54.905  0.0000E+00  0.0000E+00  0.0000E+00
    -54.615  0.0000E+00  0.0000E+00  0.0000E+00
    -54.326  0.0000E+00  0.0000E+00  0.0000E+00
    -54.037  0.0000E+00  0.0000E+00  0.0000E+00
    -53.748  0.0000E+00  0.0000E+00  0.0000E+00
    -53.458  0.0000E+00  0.0000E+00  0.0000E+00
    -53.169  0.0000E+00  0.0000E+00  0.0000E+00
    -52.880  0.0000E+00  0.0000E+00  0.0000E+00
    -52.591  0.0000E+00  0.0000E+00  0.0000E+00
    -52.301  0.0000E+00  0.0000E+00  0.0000E+00
    -52.012  0.0000E+00  0.0000E+00  0.0000E+00
    -51.723  0.0000E+00  0.0000E+00  0.0000E+00
    -51.434  0.0000E+00  0.0000E+00  0.0000E+00
    -51.144  0.0000E+00  0.0000E+00  0.0000E+00
    -50.855  0.0000E+00  0.0000E+00  0.0000E+00
    -50.566  0.0000E+00  0.0000E+00  0.0000E+00
    -50.277  0.0000E+00  0.0000E+00  0.0000E+00
    -49.987  0.0000E+00  0.0000E+00  0.0000E+00
    -49.698  0.0000E+00  0.0000E+00  0.0000E+00
    -49.409  0.0000E+00  0.0000E+00  0.0000E+00
    -49.120  0.0000E+00  0.0000E+00  0.0000E+00
    -48.830  0.0000E+00  0.0000E+00  0.0000E+00
    -48.541  0.0000E+00  0.0000E+00  0.0000E+00
    -48.252  0.0000E+00  0.0000E+00  0.0000E+00
    -47.963  0.0000E+00  0.0000E+00  0.0000E+00
    -47.673  0.0000E+00  0.0000E+00  0.0000E+00
    -47.384  0.0000E+00  0.0000E+00  0.0000E+00
    -47.095  0.0000E+00  0.0000E+00  0.0000E+00
    -46.805  0.0000E+00  0.0000E+00  0.0000E+00
    -46.516  0.0000E+00  0.0000E+00  0.0000E+00
    -46.227  0.0000E+00  0.0000E+00  0.0000E+00
    -45.938  0.0000E+00  0.0000E+00  0.0000E+00
    -45.648  0.0000E+00  0.0000E+00  0.0000E+00
    -45.359  0.0000E+00  0.0000E+00  0.0000E+00
    -45.070  0.0000E+00  0.0000E+00  0.0000E+00
    -44.781  0.0000E+00  0.0000E+00  0.0000E+00
    -44.491  0.0000E+00  0.0000E+00  0.0000E+00
    -44.202  0.0000E+00  0.0000E+00  0.0000E+00
    -43.913  0.0000E+00  0.0000E+00  0.0000E+00
    -43.624  0.0000E+00  0.0000E+00  0.0000E+00
    -43.334  0.0000E+00  0.0000E+00  0.0000E+00
    -43.045  0.0000E+00  0.0000E+00  0.0000E+00
    -42.756  0.0000E+00  0.0000E+00  0.0000E+00
    -42.467  0.0000E+00  0.0000E+00  0.0000E+00
    -42.177  0.0000E+00  0.0000E+00  0.0000E+00
    -41.888  0.0000E+00  0.0000E+00  0.0000E+00
    -41.599  0.0000E+00  0.0000E+00  0.0000E+00
    -41.310  0.0000E+00  0.0000E+00  0.0000E+00
    -41.020  0.0000E+00  0.0000E+00  0.0000E+00
    -40.731  0.0000E+00  0.0000E+00  0.0000E+00
    -40.442  0.0000E+00  0.0000E+00  0.0000E+00
    -40.153  0.0000E+00  0.0000E+00  0.0000E+00
    -39.863  0.0000E+00  0.0000E+00  0.0000E+00
    -39.574  0.0000E+00  0.0000E+00  0.0000E+00
    -39.285  0.0000E+00  0.0000E+00  0.0000E+00
    -38.996  0.0000E+00  0.0000E+00  0.0000E+00
    -38.706  0.0000E+00  0.0000E+00  0.0000E+00
    -38.417  0.0000E+00  0.0000E+00  0.0000E+00
    -38.128  0.0000E+00  0.0000E+00  0.0000E+00
    -37.839  0.0000E+00  0.0000E+00  0.0000E+00
    -37.549  0.0000E+00  0.0000E+00  0.0000E+00
    -37.260  0.0000E+00  0.0000E+00  0.0000E+00
    -36.971  0.0000E+00  0.0000E+00  0.0000E+00
    -36.681  0.0000E+00  0.0000E+00  0.0000E+00
    -36.392  0.0000E+00  0.0000E+00  0.0000E+00
    -36.103  0.0000E+00  0.0000E+00  0.0000E+00
    -35.814  0.0000E+00  0.0000E+00  0.0000E+00
    -35.524  0.0000E+00  0.0000E+00  0.0000E+00
    -35.235  0.0000E+00  0.0000E+00  0.0000E+00
    -34.946  0.0000E+00  0.0000E+00  0.0000E+00
    -34.657  0.0000E+00  0.0000E+00  0.0000E+00
    -34.367  0.0000E+00  0.0000E+00  0.0000E+00
    -34.078  0.0000E+00  0.0000E+00  0.0000E+00
    -33.789  0.0000E+00  0.0000E+00  0.0000E+00
    -33.500  0.0000E+00  0.0000E+00  0.0000E+00
    -33.210  0.0000E+00  0.0000E+00  0.0000E+00
    -32.921  0.0000E+00  0.0000E+00  0.0000E+00
    -32.632  0.0000E+00  0.0000E+00  0.0000E+00
    -32.343  0.0000E+00  0.0000E+00  0.0000E+00
    -32.053  0.0000E+00  0.0000E+00  0.0000E+00
    -31.764  0.0000E+00  0.0000E+00  0.0000E+00
    -31.475  0.0000E+00  0.0000E+00  0.0000E+00
    -31.186  0.0000E+00  0.0000E+00  0.0000E+00
    -30.896  0.0000E+00  0.0000E+00  0.0000E+00
    -30.607  0.0000E+00  0.0000E+00  0.0000E+00
    -30.318  0.0000E+00  0.0000E+00  0.0000E+00
    -30.029  0.0000E+00  0.0000E+00  0.0000E+00
    -29.739  0.0000E+00  0.0000E+00  0.0000E+00
    -29.450  0.0000E+00  0.0000E+00  0.0000E+00
    -29.161  0.0000E+00  0.0000E+00  0.0000E+00
    -28.872  0.0000E+00  0.0000E+00  0.0000E+00
    -28.582  0.0000E+00  0.0000E+00  0.0000E+00
    -28.293  0.0000E+00  0.0000E+00  0.0000E+00
    -28.004  0.0000E+00  0.0000E+00  0.0000E+00
    -27.715  0.0000E+00  0.0000E+00  0.0000E+00
    -27.425  0.0000E+00  0.0000E+00  0.0000E+00
    -27.136  0.0000E+00  0.0000E+00  0.0000E+00
    -26.847  0.0000E+00  0.0000E+00  0.0000E+00
    -26.557  0.0000E+00  0.0000E+00  0.0000E+00
    -26.268  0.0000E+00  0.0000E+00  0.0000E+00
    -25.979  0.0000E+00  0.0000E+00  0.0000E+00
    -25.690  0.0000E+00  0.0000E+00  0.0000E+00
    -25.400  0.0000E+00  0.0000E+00  0.0000E+00
    -25.111  0.0000E+00  0.0000E+00  0.0000E+00
    -24.822  0.0000E+00  0.0000E+00  0.0000E+00
    -24.533  0.0000E+00  0.0000E+00  0.0000E+00
    -24.243  0.0000E+00  0.0000E+00  0.0000E+00
    -23.954  0.0000E+00  0.0000E+00  0.0000E+00
    -23.665  0.0000E+00  0.0000E+00  0.0000E+00
    -23.376  0.0000E+00  0.0000E+00  0.0000E+00
    -23.086  0.0000E+00  0.0000E+00  0.0000E+00
    -22.797  0.0000E+00  0.0000E+00  0.0000E+00
    -22.508  0.0000E+00  0.0000E+00  0.0000E+00
    -22.219  0.0000E+00  0.0000E+00  0.0000E+00
    -21.929  0.0000E+00  0.0000E+00  0.0000E+00
    -21.640  0.0000E+00  0.0000E+00  0.0000E+00
    -21.351  0.0000E+00  0.0000E+00  0.0000E+00
    -21.062  0.0000E+00  0.0000E+00  0.0000E+00
    -20.772  0.0000E+00  0.0000E+00  0.0000E+00
    -20.483  0.0000E+00  0.0000E+00  0.0000E+00
    -20.194  0.0000E+00  0.0000E+00  0.0000E+00
    -19.905  0.0000E+00  0.0000E+00  0.0000E+00
    -19.615  0.0000E+00  0.0000E+00  0.0000E+00
    -19.326  0.0000E+00  0.0000E+00  0.0000E+00
    -19.037  0.0000E+00  0.0000E+00  0.0000E+00
    -18.748  0.0000E+00  0.0000E+00  0.0000E+00
    -18.458  0.0000E+00  0.0000E+00  0.0000E+00
    -18.169  0.0000E+00  0.0000E+00  0.0000E+00
    -17.880  0.0000E+00  0.0000E+00  0.0000E+00
    -17.591  0.0000E+00  0.0000E+00  0.0000E+00
    -17.301  0.0000E+00  0.0000E+00  0.0000E+00
    -17.012  0.0000E+00  0.0000E+00  0.0000E+00
    -16.723  0.0000E+00  0.0000E+00  0.0000E+00
    -16.433  0.0000E+00  0.0000E+00  0.0000E+00
    -16.144  0.1471E-13  0.6609E-14  0.2665E-14
    -15.855  0.3645E-08  0.1642E-08  0.6639E-09
    -15.566  0.1060E-07  0.4781E-08  0.1936E-08
    -15.276  0.4238E-11  0.1914E-11  0.7769E-12
    -14.987  0.0000E+00  0.0000E+00  0.0000E+00
    -14.698  0.0000E+00  0.0000E+00  0.0000E+00
    -14.409  0.0000E+00  0.0000E+00  0.0000E+00
    -14.119  0.0000E+00  0.0000E+00  0.0000E+00
    -13.830  0.0000E+00  0.0000E+00  0.0000E+00
    -13.541  0.0000E+00  0.0000E+00  0.0000E+00
    -13.252  0.0000E+00  0.0000E+00  0.0000E+00
    -12.962  0.0000E+00  0.0000E+00  0.0000E+00
    -12.673  0.0000E+00  0.0000E+00  0.0000E+00
    -12.384  0.0000E+00  0.0000E+00  0.0000E+00
    -12.095  0.0000E+00  0.0000E+00  0.0000E+00
    -11.805  0.0000E+00  0.0000E+00  0.0000E+00
    -11.516  0.0000E+00  0.0000E+00  0.0000E+00
    -11.227  0.0000E+00  0.0000E+00  0.0000E+00
    -10.938  0.0000E+00  0.0000E+00  0.0000E+00
    -10.648  0.9632E-11  0.8756E-12  0.4798E-14
    -10.359  0.1027E-03  0.9340E-05  0.5124E-07
    -10.070  0.4687E-02  0.4774E-03  0.2554E-04
     -9.781  0.9436E-02  0.1037E-02  0.8592E-04
     -9.491  0.1000E-01  0.1516E-02  0.3734E-03
     -9.202  0.1196E-01  0.1905E-02  0.5765E-03
     -8.913  0.4634E-02  0.2622E-03  0.1972E-03
     -8.624  0.4679E-01  0.5268E-02  0.2892E-02
     -8.334  0.9664E-02  0.3436E-02  0.2895E-02
     -8.045  0.5382E-01  0.5280E-02  0.3712E-02
     -7.756  0.1051E-01  0.1828E-02  0.1550E-02
     -7.467  0.4845E-01  0.1223E-01  0.1468E-01
     -7.177  0.3165E-01  0.8395E-02  0.1576E-01
     -6.888  0.4325E-01  0.4955E-02  0.2157E-01
     -6.599  0.8618E-01  0.1322E-01  0.4593E-01
     -6.309  0.6074E-01  0.1828E-01  0.7767E-01
     -6.020  0.4792E-01  0.1932E-01  0.1162E+00
     -5.731  0.8793E-01  0.2731E-01  0.2904E+00
     -5.442  0.9045E-01  0.2787E-01  0.4470E+00
     -5.152  0.6333E-01  0.2788E-01  0.8861E+00
     -4.863  0.2630E-01  0.2461E-01  0.1154E+01
     -4.574  0.1728E-01  0.2684E-01  0.1489E+01
     -4.285  0.1550E-01  0.1828E-01  0.1525E+01
     -3.995  0.2439E-01  0.3096E-01  0.2551E+01
     -3.706  0.3895E-01  0.5595E-01  0.4469E+01
     -3.417  0.2073E-01  0.4426E-01  0.2937E+01
     -3.128  0.2652E-01  0.4624E-01  0.3250E+01
     -2.838  0.2020E-01  0.2812E-01  0.4051E+01
     -2.549  0.2694E-01  0.2220E-01  0.4623E+01
     -2.260  0.1989E-01  0.1346E-01  0.1718E+01
     -1.971  0.2016E-01  0.1760E-01  0.4092E+00
     -1.681  0.3015E-01  0.2637E-01  0.2176E+00
     -1.392  0.3138E-01  0.3892E-01  0.1475E+00
     -1.103  0.2262E-01  0.2879E-01  0.1315E+00
     -0.814  0.2815E-01  0.3561E-01  0.1819E+00
     -0.524  0.2465E-01  0.3675E-01  0.9096E-01
     -0.235  0.5281E-01  0.8337E-01  0.1877E+00
      0.054  0.1006E-01  0.2409E-01  0.5979E-01
      0.343  0.1131E-01  0.4386E-01  0.4754E-01
      0.633  0.3134E-01  0.9507E-01  0.9743E-01
      0.922  0.1631E-01  0.4783E-01  0.7404E-01
      1.211  0.1763E-01  0.4876E-01  0.6403E-01
      1.500  0.1622E-01  0.8758E-01  0.1002E+00
      1.790  0.1683E-01  0.4364E-01  0.7059E-01
      2.079  0.1481E-01  0.4825E-01  0.5234E-01
      2.368  0.5082E-02  0.2518E-01  0.2433E-01
      2.658  0.4577E-02  0.4522E-01  0.3354E-01
      2.947  0.4029E-02  0.5209E-01  0.4236E-01
      3.236  0.1327E-01  0.4416E-01  0.4315E-01
      3.525  0.1706E-01  0.1922E-01  0.3083E-01
      3.815  0.1858E-01  0.2927E-01  0.4676E-01
      4.104  0.2805E-01  0.2459E-01  0.4973E-01
      4.393  0.6950E-01  0.3461E-01  0.5362E-01
      4.682  0.6531E-01  0.5524E-01  0.5685E-01
      4.972  0.7548E-01  0.4452E-01  0.7473E-01
      5.261  0.7001E-01  0.3373E-01  0.7811E-01
      5.550  0.6982E-01  0.8591E-01  0.7629E-01
      5.839  0.4222E-01  0.6114E-01  0.5608E-01
      6.129  0.4694E-01  0.7165E-01  0.5639E-01
      6.418  0.4841E-01  0.7647E-01  0.6955E-01
      6.707  0.3050E-01  0.5153E-01  0.4637E-01
      6.996  0.2969E-01  0.7318E-01  0.4525E-01
      7.286  0.4699E-01  0.5269E-01  0.2975E-01
      7.575  0.6991E-01  0.8745E-01  0.6808E-01
      7.864  0.1130E-01  0.1336E-01  0.1570E-01
      8.153  0.8568E-05  0.1677E-04  0.2759E-04
      8.443  0.1275E-13  0.2338E-13  0.4362E-13
      8.732  0.0000E+00  0.0000E+00  0.0000E+00
      9.021  0.0000E+00  0.0000E+00  0.0000E+00
      9.310  0.0000E+00  0.0000E+00  0.0000E+00
      9.600  0.0000E+00  0.0000E+00  0.0000E+00
      9.889  0.0000E+00  0.0000E+00  0.0000E+00
     10.178  0.0000E+00  0.0000E+00  0.0000E+00
     10.467  0.0000E+00  0.0000E+00  0.0000E+00
     10.757  0.0000E+00  0.0000E+00  0.0000E+00
     11.046  0.0000E+00  0.0000E+00  0.0000E+00
     11.335  0.0000E+00  0.0000E+00  0.0000E+00
     11.624  0.0000E+00  0.0000E+00  0.0000E+00
     11.62448232    -75.15271059  301     -0.97469548      1.00000000
    -75.153  0.0000E+00  0.0000E+00  0.0000E+00
    -74.863  0.0000E+00  0.0000E+00  0.0000E+00
    -74.574  0.0000E+00  0.0000E+00  0.0000E+00
    -74.285  0.0000E+00  0.0000E+00  0.0000E+00
    -73.996  0.0000E+00  0.0000E+00  0.0000E+00
    -73.706  0.0000E+00  0.0000E+00  0.0000E+00
    -73.417  0.0000E+00  0.0000E+00  0.0000E+00
    -73.128  0.0000E+00  0.0000E+00  0.0000E+00
    -72.839  0.0000E+00  0.0000E+00  0.0000E+00
    -72.549  0.0000E+00  0.0000E+00  0.0000E+00
    -72.260  0.0000E+00  0.0000E+00  0.0000E+00
    -71.971  0.0000E+00  0.0000E+00  0.0000E+00
    -71.682  0.2327E-20  0.8746E-18  0.7097E-19
    -71.392  0.1007E-10  0.4012E-07  0.6037E-10
    -71.103  0.2642E-05  0.1811E-01  0.4137E-05
    -70.814  0.2403E-04  0.8241E+01  0.4836E-04
    -70.525  0.2552E-04  0.1241E+02  0.3269E-04
    -70.235  0.2648E-07  0.1005E-01  0.1231E-07
    -69.946  0.1960E-16  0.4990E-11  0.2719E-15
    -69.657  0.0000E+00  0.0000E+00  0.0000E+00
    -69.368  0.0000E+00  0.0000E+00  0.0000E+00
    -69.078  0.0000E+00  0.0000E+00  0.0000E+00
    -68.789  0.0000E+00  0.0000E+00  0.0000E+00
    -68.500  0.0000E+00  0.0000E+00  0.0000E+00
    -68.211  0.0000E+00  0.0000E+00  0.0000E+00
    -67.921  0.0000E+00  0.0000E+00  0.0000E+00
    -67.632  0.0000E+00  0.0000E+00  0.0000E+00
    -67.343  0.0000E+00  0.0000E+00  0.0000E+00
    -67.054  0.0000E+00  0.0000E+00  0.0000E+00
    -66.764  0.0000E+00  0.0000E+00  0.0000E+00
    -66.475  0.0000E+00  0.0000E+00  0.0000E+00
    -66.186  0.0000E+00  0.0000E+00  0.0000E+00
    -65.896  0.0000E+00  0.0000E+00  0.0000E+00
    -65.607  0.0000E+00  0.0000E+00  0.0000E+00
    -65.318  0.0000E+00  0.0000E+00  0.0000E+00
    -65.029  0.0000E+00  0.0000E+00  0.0000E+00
    -64.739  0.0000E+00  0.0000E+00  0.0000E+00
    -64.450  0.0000E+00  0.0000E+00  0.0000E+00
    -64.161  0.0000E+00  0.0000E+00  0.0000E+00
    -63.872  0.0000E+00  0.0000E+00  0.0000E+00
    -63.582  0.0000E+00  0.0000E+00  0.0000E+00
    -63.293  0.0000E+00  0.0000E+00  0.0000E+00
    -63.004  0.0000E+00  0.0000E+00  0.0000E+00
    -62.715  0.0000E+00  0.0000E+00  0.0000E+00
    -62.425  0.0000E+00  0.0000E+00  0.0000E+00
    -62.136  0.0000E+00  0.0000E+00  0.0000E+00
    -61.847  0.0000E+00  0.0000E+00  0.0000E+00
    -61.558  0.0000E+00  0.0000E+00  0.0000E+00
    -61.268  0.0000E+00  0.0000E+00  0.0000E+00
    -60.979  0.0000E+00  0.0000E+00  0.0000E+00
    -60.690  0.0000E+00  0.0000E+00  0.0000E+00
    -60.401  0.0000E+00  0.0000E+00  0.0000E+00
    -60.111  0.0000E+00  0.0000E+00  0.0000E+00
    -59.822  0.0000E+00  0.0000E+00  0.0000E+00
    -59.533  0.0000E+00  0.0000E+00  0.0000E+00
    -59.244  0.0000E+00  0.0000E+00  0.0000E+00
    -58.954  0.0000E+00  0.0000E+00  0.0000E+00
    -58.665  0.0000E+00  0.0000E+00  0.0000E+00
    -58.376  0.0000E+00  0.0000E+00  0.0000E+00
    -58.087  0.0000E+00  0.0000E+00  0.0000E+00
    -57.797  0.0000E+00  0.0000E+00  0.0000E+00
    -57.508  0.0000E+00  0.0000E+00  0.0000E+00
    -57.219  0.0000E+00  0.0000E+00  0.0000E+00
    -56.930  0.0000E+00  0.0000E+00  0.0000E+00
    -56.640  0.0000E+00  0.0000E+00  0.0000E+00
    -56.351  0.0000E+00  0.0000E+00  0.0000E+00
    -56.062  0.0000E+00  0.0000E+00  0.0000E+00
    -55.772  0.0000E+00  0.0000E+00  0.0000E+00
    -55.483  0.0000E+00  0.0000E+00  0.0000E+00
    -55.194  0.0000E+00  0.0000E+00  0.0000E+00
    -54.905  0.0000E+00  0.0000E+00  0.0000E+00
    -54.615  0.0000E+00  0.0000E+00  0.0000E+00
    -54.326  0.0000E+00  0.0000E+00  0.0000E+00
    -54.037  0.0000E+00  0.0000E+00  0.0000E+00
    -53.748  0.0000E+00  0.0000E+00  0.0000E+00
    -53.458  0.0000E+00  0.0000E+00  0.0000E+00
    -53.169  0.0000E+00  0.0000E+00  0.0000E+00
    -52.880  0.0000E+00  0.0000E+00  0.0000E+00
    -52.591  0.0000E+00  0.0000E+00  0.0000E+00
    -52.301  0.0000E+00  0.0000E+00  0.0000E+00
    -52.012  0.0000E+00  0.0000E+00  0.0000E+00
    -51.723  0.0000E+00  0.0000E+00  0.0000E+00
    -51.434  0.0000E+00  0.0000E+00  0.0000E+00
    -51.144  0.0000E+00  0.0000E+00  0.0000E+00
    -50.855  0.0000E+00  0.0000E+00  0.0000E+00
    -50.566  0.0000E+00  0.0000E+00  0.0000E+00
    -50.277  0.0000E+00  0.0000E+00  0.0000E+00
    -49.987  0.0000E+00  0.0000E+00  0.0000E+00
    -49.698  0.0000E+00  0.0000E+00  0.0000E+00
    -49.409  0.0000E+00  0.0000E+00  0.0000E+00