   38   38  150    1
  0.3386168E+02  0.7529542E-09  0.7529542E-09  0.2620742E-08  0.5000000E-15
  1.000000000000000E-004
  CAR 
 unknown system                          
    620     10    372
 
  0.0000000E+00  0.0000000E+00  0.0000000E+00  0.6250000E-01
    1      -71.205408
    2      -71.196880
    3      -71.160155
    4      -71.154989
    5      -71.122112
    6      -71.115684
    7      -71.109200
    8      -71.106008
    9      -71.103039
   10      -71.090345
   11      -71.072416
   12      -71.067175
   13      -71.063464
   14      -71.061428
   15      -71.058036
   16      -71.051866
   17      -71.051641
   18      -71.050269
   19      -71.049805
   20      -71.049394
   21      -71.047733
   22      -71.044625
   23      -71.043621
   24      -71.041970
   25      -71.039222
   26      -71.038347
   27      -71.036559
   28      -71.035979
   29      -71.033796
   30      -71.030745
   31      -71.030691
   32      -71.026168
   33      -71.020330
   34      -71.019715
   35      -71.011531
   36      -71.007927
   37      -71.006172
   38      -71.003659
   39      -70.999129
   40      -70.998921
   41      -70.998086
   42      -70.995177
   43      -70.993947
   44      -70.992709
   45      -70.990058
   46      -70.986283
   47      -70.985930
   48      -70.983341
   49      -70.983063
   50      -70.981706
   51      -70.971555
   52      -70.971299
   53      -70.970044
   54      -70.967406
   55      -70.961315
   56      -70.949442
   57      -70.947267
   58      -70.943043
   59      -70.939676
   60      -70.931280
   61      -70.926442
   62      -70.919865
   63      -70.911665
   64      -70.907106
   65      -70.901573
   66      -70.894294
   67      -70.842678
   68      -70.839414
   69      -70.835818
   70      -70.835668
   71      -70.834961
   72      -70.831323
   73      -70.829277
   74      -70.826257
   75      -70.823293
   76      -70.822690
   77      -70.802993
   78      -70.791443
   79      -70.784560
   80      -70.784515
   81      -70.781136
   82      -70.780134
   83      -70.776634
   84      -70.775390
   85      -70.772961
   86      -70.772490
   87      -70.771598
   88      -70.757655
   89      -70.757258
   90      -70.741843
   91      -70.739492
   92      -70.737711
   93      -70.726915
   94      -70.723852
   95      -70.723690
   96      -70.721960
   97      -70.721089
   98      -70.718282
   99      -70.715605
  100      -70.705081
  101      -70.703338
  102      -70.702496
  103      -70.694691
  104      -70.689147
  105      -70.681911
  106      -70.678807
  107      -70.630143
  108      -70.626407
  109      -15.809852
  110      -10.242102
  111       -8.944324
  112       -8.399281
  113       -7.405040
  114       -7.242559
  115       -7.153607
  116       -7.142914
  117       -7.113603
  118       -7.099351
  119       -7.047825
  120       -6.642536
  121       -6.581543
  122       -6.426558
  123       -6.367587
  124       -6.364063
  125       -6.354002
  126       -6.201152
  127       -5.918989
  128       -5.914486
  129       -5.738734
  130       -5.659476
  131       -5.629267
  132       -5.498360
  133       -5.435670
  134       -5.371835
  135       -5.314008
  136       -5.301830
  137       -5.296504
  138       -5.271275
  139       -5.246294
  140       -5.225020
  141       -5.160228
  142       -5.147851
  143       -5.111539
  144       -5.102201
  145       -5.099887
  146       -5.098879
  147       -5.080885
  148       -5.063335
  149       -5.053402
  150       -5.037212
  151       -5.027325
  152       -4.996065
  153       -4.994070
  154       -4.978128
  155       -4.952072
  156       -4.919383
  157       -4.847666
  158       -4.816155
  159       -4.809733
  160       -4.786977
  161       -4.779319
  162       -4.776579
  163       -4.758412
  164       -4.741974
  165       -4.642573
  166       -4.626528
  167       -4.587947
  168       -4.464277
  169       -4.419860
  170       -4.412677
  171       -4.398940
  172       -4.377563
  173       -4.354814
  174       -4.325521
  175       -4.310201
  176       -4.294454
  177       -4.274590
  178       -4.248642
  179       -4.246031
  180       -4.240146
  181       -4.213051
  182       -4.209270
  183       -4.191104
  184       -4.179738
  185       -4.165138
  186       -4.153884
  187       -4.054000
  188       -4.049185
  189       -4.031132
  190       -4.026911
  191       -4.020701
  192       -3.988277
  193       -3.986465
  194       -3.980198
  195       -3.977770
  196       -3.975980
  197       -3.924803
  198       -3.910308
  199       -3.876706
  200       -3.875386
  201       -3.870932
  202       -3.856179
  203       -3.852685
  204       -3.841487
  205       -3.832828
  206       -3.821709
  207       -3.819164
  208       -3.815679
  209       -3.815401
  210       -3.806869
  211       -3.800652
  212       -3.773394
  213       -3.771790
  214       -3.752767
  215       -3.746743
  216       -3.738999
  217       -3.696785
  218       -3.681471
  219       -3.664493
  220       -3.609148
  221       -3.595839
  222       -3.533889
  223       -3.522575
  224       -3.508607
  225       -3.492633
  226       -3.428044
  227       -3.405373
  228       -3.402419
  229       -3.391002
  230       -3.383259
  231       -3.359355
  232       -3.348138
  233       -3.340097
  234       -3.326728
  235       -3.312059
  236       -3.306129
  237       -3.297902
  238       -3.294253
  239       -3.227034
  240       -3.221193
  241       -3.178173
  242       -3.169748
  243       -3.163420
  244       -3.160618
  245       -3.142271
  246       -3.084936
  247       -3.072233
  248       -3.062947
  249       -3.054062
  250       -3.051657
  251       -3.038479
  252       -3.035907
  253       -3.025865
  254       -3.012072
  255       -2.988805
  256       -2.958324
  257       -2.931900
  258       -2.927761
  259       -2.925082
  260       -2.917825
  261       -2.895504
  262       -2.892392
  263       -2.868079
  264       -2.865189
  265       -2.851916
  266       -2.847391
  267       -2.843669
  268       -2.840288
  269       -2.836680
  270       -2.826397
  271       -2.815853
  272       -2.805804
  273       -2.796618
  274       -2.784739
  275       -2.770982
  276       -2.766614
  277       -2.753924
  278       -2.749695
  279       -2.745106
  280       -2.739113
  281       -2.735917
  282       -2.729328
  283       -2.716898
  284       -2.703349
  285       -2.699538
  286       -2.695155
  287       -2.689755
  288       -2.688356
  289       -2.684833
  290       -2.674189
  291       -2.670892
  292       -2.663639
  293       -2.661461
  294       -2.652084
  295       -2.647964
  296       -2.627605
  297       -2.605784
  298       -2.595815
  299       -2.581318
  300       -2.569725
  301       -2.545474
  302       -2.534814
  303       -2.527209
  304       -2.509709
  305       -2.502023
  306       -2.279216
  307       -2.262308
  308       -1.992484
  309       -1.765076
  310       -1.399926
  311       -1.360835
  312       -1.354429
  313       -0.999924
  314       -0.865035
  315       -0.834427
  316        0.446630
  317        0.899036
  318        1.036195
  319        1.125086
  320        1.559027
  321        1.565617
  322        2.581918
  323        2.597312
  324        2.607095
  325        2.646103
  326        2.754838
  327        2.883096
  328        2.920270
  329        3.189689
  330        3.212376
  331        3.368213
  332        3.601090
  333        3.611211
  334        3.627128
  335        3.672961
  336        3.707641
  337        3.947539
  338        4.045872
  339        4.050935
  340        4.430619
  341        4.435121
  342        4.512685
  343        4.585259
  344        4.610243
  345        4.829377
  346        5.426156
  347        5.549888
  348        5.746603
  349        5.790299
  350        5.946090
  351        6.069605
  352        6.085876
  353        6.108457
  354        6.223443
  355        6.236137
  356        6.240840
  357        6.430830
  358        6.736646
  359        6.758920
  360        6.782526
  361        6.823586
  362        6.850631
  363        6.966561
  364        7.018560
  365        7.149765
  366        7.196947
  367        7.258004
  368        7.290240
  369        7.297752
  370        7.379670
  371        7.467045
  372        7.516208
 
  0.2500000E+00  0.5551115E-16  0.0000000E+00  0.1250000E+00
    1      -71.206883
    2      -71.195319
    3      -71.160291
    4      -71.155045
    5      -71.121675
    6      -71.114816
    7      -71.109949
    8      -71.106999
    9      -71.101353
   10      -71.092886
   11      -71.075518
   12      -71.069674
   13      -71.066216
   14      -71.062431
   15      -71.060455
   16      -71.058372
   17      -71.056022
   18      -71.052837
   19      -71.051520
   20      -71.050298
   21      -71.044759
   22      -71.040581
   23      -71.039829
   24      -71.038358
   25      -71.036409
   26      -71.034811
   27      -71.033077
   28      -71.031900
   29      -71.030721
   30      -71.029638
   31      -71.025854
   32      -71.024002
   33      -71.019338
   34      -71.016618
   35      -71.011205
   36      -71.008061
   37      -71.005284
   38      -71.003056
   39      -71.001792
   40      -71.000195
   41      -70.999763
   42      -70.995636
   43      -70.993484
   44      -70.991327
   45      -70.989338
   46      -70.986147
   47      -70.985200
   48      -70.984119
   49      -70.981314
   50      -70.978518
   51      -70.974676
   52      -70.971683
   53      -70.969198
   54      -70.966068
   55      -70.962483
   56      -70.949306
   57      -70.948022
   58      -70.945385
   59      -70.940216
   60      -70.930209
   61      -70.926322
   62      -70.921720
   63      -70.911585
   64      -70.906906
   65      -70.902444
   66      -70.895066
   67      -70.853953
   68      -70.846784
   69      -70.844070
   70      -70.838866
   71      -70.838672
   72      -70.823465
   73      -70.822100
   74      -70.815395
   75      -70.811718
   76      -70.807133
   77      -70.805875
   78      -70.792592
   79      -70.787986
   80      -70.784963
   81      -70.782522
   82      -70.781560
   83      -70.778102
   84      -70.775120
   85      -70.772397
   86      -70.770046
   87      -70.767913
   88      -70.763047
   89      -70.758541
   90      -70.742638
   91      -70.739042
   92      -70.737516
   93      -70.726556
   94      -70.725269
   95      -70.724194
   96      -70.722033
   97      -70.720689
   98      -70.718318
   99      -70.715547
  100      -70.704947
  101      -70.703724
  102      -70.702438
  103      -70.694606
  104      -70.689005
  105      -70.681786
  106      -70.678772
  107      -70.629974
  108      -70.626389
  109      -15.808911
  110      -10.015625
  111       -8.759376
  112       -8.458761
  113       -8.261861
  114       -7.573479
  115       -7.543931
  116       -7.287930
  117       -7.167391
  118       -6.675003
  119       -6.592064
  120       -6.528363
  121       -6.489069
  122       -6.361576
  123       -6.284457
  124       -6.174199
  125       -6.066090
  126       -6.025193
  127       -5.977398
  128       -5.838059
  129       -5.729688
  130       -5.638330
  131       -5.578408
  132       -5.490979
  133       -5.464567
  134       -5.420313
  135       -5.382034
  136       -5.375388
  137       -5.366243
  138       -5.348601
  139       -5.329480
  140       -5.308545
  141       -5.284739
  142       -5.262495
  143       -5.197961
  144       -5.182951
  145       -5.164624
  146       -5.154174
  147       -5.115488
  148       -5.089497
  149       -5.041485
  150       -5.029301
  151       -4.996570
  152       -4.963187
  153       -4.945237
  154       -4.907667
  155       -4.899331
  156       -4.855965
  157       -4.843075
  158       -4.827898
  159       -4.794806
  160       -4.769612
  161       -4.746808
  162       -4.699100
  163       -4.674543
  164       -4.649293
  165       -4.636521
  166       -4.616232
  167       -4.546768
  168       -4.536885
  169       -4.531142
  170       -4.486730
  171       -4.461037
  172       -4.427909
  173       -4.413369
  174       -4.374298
  175       -4.326441
  176       -4.318224
  177       -4.289186
  178       -4.281457
  179       -4.269278
  180       -4.253216
  181       -4.232820
  182       -4.214565
  183       -4.185014
  184       -4.169771
  185       -4.145749
  186       -4.138269
  187       -4.116680
  188       -4.074509
  189       -4.061429
  190       -4.049443
  191       -4.036950
  192       -4.015716
  193       -3.992155
  194       -3.979003
  195       -3.964469
  196       -3.962933
  197       -3.942333
  198       -3.936283
  199       -3.922425
  200       -3.916422
  201       -3.912130
  202       -3.908583
  203       -3.895870
  204       -3.884605
  205       -3.872763
  206       -3.864825
  207       -3.853246
  208       -3.844919
  209       -3.832868
  210       -3.810806
  211       -3.792762
  212       -3.783870
  213       -3.757419
  214       -3.746228
  215       -3.730740
  216       -3.717869
  217       -3.707762
  218       -3.702770
  219       -3.701070
  220       -3.694807
  221       -3.675034
  222       -3.651602
  223       -3.614440
  224       -3.567924
  225       -3.556784
  226       -3.529651
  227       -3.491183
  228       -3.471331
  229       -3.444849
  230       -3.421721
  231       -3.413161
  232       -3.394695
  233       -3.378148
  234       -3.371461
  235       -3.352645
  236       -3.328123
  237       -3.321118
  238       -3.301545
  239       -3.272037
  240       -3.252885
  241       -3.241141
  242       -3.232220
  243       -3.212181
  244       -3.182030
  245       -3.172460
  246       -3.154119
  247       -3.135236
  248       -3.120386
  249       -3.092957
  250       -3.091565
  251       -3.077787
  252       -3.066370
  253       -3.047178
  254       -3.034906
  255       -3.027456
  256       -3.010788
  257       -2.991619
  258       -2.970434
  259       -2.959136
  260       -2.945953
  261       -2.939937
  262       -2.918461
  263       -2.905845
  264       -2.891753
  265       -2.879274
  266       -2.873053
  267       -2.852201
  268       -2.831762
  269       -2.814345
  270       -2.803657
  271       -2.796271
  272       -2.784355
  273       -2.759939
  274       -2.749433
  275       -2.740853
  276       -2.725035
  277       -2.720543
  278       -2.694995
  279       -2.683215
  280       -2.676916
  281       -2.670938
  282       -2.660703
  283       -2.647120
  284       -2.640686
  285       -2.631308
  286       -2.623460
  287       -2.616878
  288       -2.611272
  289       -2.605683
  290       -2.593102
  291       -2.571208
  292       -2.554005
  293       -2.547656
  294       -2.542661
  295       -2.526002
  296       -2.519566
  297       -2.505462
  298       -2.476531
  299       -2.419432
  300       -2.354766
  301       -2.353533
  302       -2.260607
  303       -2.189502
  304       -2.161191
  305       -2.068459
  306       -1.858335
  307       -1.797394
  308       -1.744322
  309       -1.571203
  310       -1.484258
  311       -1.280910
  312       -0.905574
  313       -0.511689
  314       -0.409675
  315       -0.330651
  316        0.204014
  317        0.485181
  318        0.600610
  319        0.637730
  320        0.955065
  321        1.313561
  322        1.353748
  323        1.589038
  324        1.791876
  325        1.936953
  326        2.267344
  327        2.407165
  328        2.573933
  329        2.851032
  330        3.174059
  331        3.213493
  332        3.308452
  333        3.556578
  334        3.675581
  335        3.971371
  336        4.124408
  337        4.214321
  338        4.381043
  339        4.628402
  340        4.663520
  341        4.706801
  342        4.797352
  343        4.983769
  344        5.072947
  345        5.165876
  346        5.243891
  347        5.387267
  348        5.461921
  349        5.505054
  350        5.681229
  351        5.735983
  352        5.878592
  353        5.913848
  354        5.967204
  355        6.069037
  356        6.235612
  357        6.325121
  358        6.348405
  359        6.395168
  360        6.429633
  361        6.548792
  362        6.607023
  363        6.681698
  364        6.767812
  365        6.885360
  366        7.103437
  367        7.197491
  368        7.309080
  369        7.328802
  370        7.441723
  371        7.459611
  372        7.514695
 
  0.5000000E+00  0.1110223E-15  0.0000000E+00  0.6250000E-01
    1      -71.208268
    2      -71.194232
    3      -71.160688
    4      -71.155371
    5      -71.121485
    6      -71.113266
    7      -71.112176
    8      -71.107180
    9      -71.100260
   10      -71.095497
   11      -71.078205
   12      -71.072932
   13      -71.067139
   14      -71.063866
   15      -71.062946
   16      -71.061276
   17      -71.058266
   18      -71.053920
   19      -71.052459
   20      -71.051689
   21      -71.043497
   22      -71.039296
   23      -71.038479
   24      -71.038125
   25      -71.035900
   26      -71.033545
   27      -71.031439
   28      -71.030930
   29      -71.027092
   30      -71.024851
   31      -71.022677
   32      -71.017334
   33      -71.013658
   34      -71.012875
   35      -71.010034
   36      -71.008170
   37      -71.008011
   38      -71.004561
   39      -71.002609
   40      -71.001074
   41      -70.999289
   42      -70.996231
   43      -70.994216
   44      -70.992344
   45      -70.990185
   46      -70.987790
   47      -70.985075
   48      -70.983666
   49      -70.981724
   50      -70.978729
   51      -70.975213
   52      -70.973494
   53      -70.968476
   54      -70.963646
   55      -70.960921
   56      -70.951525
   57      -70.948783
   58      -70.947267
   59      -70.942037
   60      -70.929424
   61      -70.926254
   62      -70.923984
   63      -70.911658
   64      -70.906815
   65      -70.903992
   66      -70.896103
   67      -70.859858
   68      -70.850312
   69      -70.847736
   70      -70.842861
   71      -70.842601
   72      -70.817311
   73      -70.816225
   74      -70.808412
   75      -70.803301
   76      -70.798211
   77      -70.796014
   78      -70.795881
   79      -70.793179
   80      -70.787421
   81      -70.784726
   82      -70.783264
   83      -70.780337
   84      -70.777499
   85      -70.773479
   86      -70.772198
   87      -70.766398
   88      -70.762469
   89      -70.761288
   90      -70.743978
   91      -70.739149
   92      -70.737459
   93      -70.727841
   94      -70.726278
   95      -70.724618
   96      -70.722211
   97      -70.720391
   98      -70.718319
   99      -70.715460
  100      -70.704894
  101      -70.704457
  102      -70.702319
  103      -70.694502
  104      -70.688960
  105      -70.681717
  106      -70.678703
  107      -70.629907
  108      -70.626335
  109      -15.808009
  110       -9.387419
  111       -9.325733
  112       -8.513563
  113       -8.119603
  114       -8.069386
  115       -7.725576
  116       -7.642346
  117       -6.887300
  118       -6.739625
  119       -6.688536
  120       -6.460140
  121       -6.117293
  122       -5.995308
  123       -5.984082
  124       -5.933698
  125       -5.883379
  126       -5.844420
  127       -5.839350
  128       -5.823202
  129       -5.764702
  130       -5.725127
  131       -5.673671
  132       -5.662271
  133       -5.638573
  134       -5.625412
  135       -5.507210
  136       -5.485645
  137       -5.454649
  138       -5.431430
  139       -5.406166
  140       -5.373842
  141       -5.309626
  142       -5.241726
  143       -5.240997
  144       -5.214725
  145       -5.191407
  146       -5.182278
  147       -5.159439
  148       -5.064456
  149       -5.051347
  150       -5.031628
  151       -4.990319
  152       -4.981412
  153       -4.913973
  154       -4.893603
  155       -4.849317
  156       -4.832765
  157       -4.822391
  158       -4.792296
  159       -4.783103
  160       -4.772522
  161       -4.709907
  162       -4.654106
  163       -4.640203
  164       -4.612194
  165       -4.589592
  166       -4.578567
  167       -4.563833
  168       -4.548068
  169       -4.540452
  170       -4.506273
  171       -4.470257
  172       -4.434344
  173       -4.424017
  174       -4.395581
  175       -4.352763
  176       -4.344486
  177       -4.324194
  178       -4.303946
  179       -4.285405
  180       -4.274121
  181       -4.265547
  182       -4.249773
  183       -4.240596
  184       -4.214666
  185       -4.203418
  186       -4.195566
  187       -4.186183
  188       -4.178544
  189       -4.162164
  190       -4.125300
  191       -4.113992
  192       -4.102792
  193       -4.044883
  194       -4.038859
  195       -4.025384
  196       -4.006496
  197       -3.998680
  198       -3.978000
  199       -3.954479
  200       -3.945341
  201       -3.933262
  202       -3.909673
  203       -3.890378
  204       -3.865766
  205       -3.829460
  206       -3.822194
  207       -3.816992
  208       -3.808050
  209       -3.787300
  210       -3.778407
  211       -3.770012
  212       -3.756589
  213       -3.753041
  214       -3.731562
  215       -3.719279
  216       -3.713932
  217       -3.701518
  218       -3.694215
  219       -3.657093
  220       -3.638560
  221       -3.624455
  222       -3.594829
  223       -3.571978
  224       -3.558343
  225       -3.542976
  226       -3.521722
  227       -3.514907
  228       -3.508496
  229       -3.494681
  230       -3.485746
  231       -3.479837
  232       -3.453714
  233       -3.440894
  234       -3.431551
  235       -3.427141
  236       -3.397533
  237       -3.391044
  238       -3.382990
  239       -3.363369
  240       -3.356569
  241       -3.353683
  242       -3.307284
  243       -3.290568
  244       -3.271889
  245       -3.227782
  246       -3.191243
  247       -3.182534
  248       -3.152664
  249       -3.144091
  250       -3.124404
  251       -3.093141
  252       -3.080248
  253       -3.050085
  254       -3.034906
  255       -3.022752
  256       -3.004486
  257       -2.976468
  258       -2.974230
  259       -2.968884
  260       -2.954930
  261       -2.943072
  262       -2.937377
  263       -2.933919
  264       -2.905772
  265       -2.896674
  266       -2.890153
  267       -2.883335
  268       -2.848075
  269       -2.815430
  270       -2.800013
  271       -2.790878
  272       -2.768884
  273       -2.753465
  274       -2.741344
  275       -2.715121
  276       -2.703263
  277       -2.679664
  278       -2.675554
  279       -2.663575
  280       -2.651936
  281       -2.645498
  282       -2.635500
  283       -2.627867
  284       -2.606546
  285       -2.591659
  286       -2.578928
  287       -2.566768
  288       -2.557922
  289       -2.554164
  290       -2.539846
  291       -2.537393
  292       -2.530933
  293       -2.489843
  294       -2.479188
  295       -2.466923
  296       -2.465857
  297       -2.449593
  298       -2.415514
  299       -2.324538
  300       -2.269357
  301       -2.184608
  302       -2.120836
  303       -1.814308
  304       -1.523856
  305       -1.404208
  306       -1.167022
  307       -1.081514
  308       -1.062242
  309       -1.009042
  310       -0.993359
  311       -0.847455
  312       -0.559167
  313       -0.501803
  314       -0.334284
  315       -0.302711
  316       -0.298373
  317        0.035128
  318        0.329607
  319        0.522074
  320        0.536844
  321        0.646149
  322        0.697791
  323        0.806175
  324        0.986692
  325        1.227929
  326        1.262927
  327        2.362503
  328        2.648068
  329        2.781406
  330        2.818194
  331        2.898454
  332        3.180206
  333        3.455445
  334        3.852673
  335        3.993116
  336        4.122317
  337        4.149567
  338        4.360468
  339        4.434945
  340        4.525055
  341        4.588009
  342        4.673690
  343        4.801036
  344        4.910863
  345        5.045923
  346        5.297034
  347        5.350360
  348        5.434388
  349        5.475336
  350        5.510051
  351        5.604481
  352        5.657420
  353        5.745200
  354        5.809939
  355        5.955384
  356        6.172764
  357        6.368955
  358        6.477863
  359        6.507035
  360        6.602465
  361        6.623492
  362        6.746600
  363        6.842248
  364        6.936004
  365        7.000563
  366        7.079868
  367        7.115986
  368        7.190312
  369        7.286552
  370        7.339671
  371        7.383270
  372        7.618834
 
  0.0000000E+00  0.2500000E+00  0.0000000E+00  0.1250000E+00
    1      -71.205374
    2      -71.196775
    3      -71.160823
    4      -71.155030
    5      -71.121493
    6      -71.115987
    7      -71.108097
    8      -71.105947
    9      -71.103090
   10      -71.091541
   11      -71.078089
   12      -71.069752
   13      -71.065459
   14      -71.061938
   15      -71.060708
   16      -71.057899
   17      -71.057224
   18      -71.052751
   19      -71.051349
   20      -71.048804
   21      -71.045733
   22      -71.041402
   23      -71.038789
   24      -71.037653
   25      -71.036834
   26      -71.034711
   27      -71.033833
   28      -71.032318
   29      -71.031380
   30      -71.030416
   31      -71.026097
   32      -71.022432
   33      -71.019096
   34      -71.015536
   35      -71.009536
   36      -71.007702
   37      -71.004940
   38      -71.002328
   39      -71.000596
   40      -71.000417
   41      -70.998441
   42      -70.993761
   43      -70.993278
   44      -70.992698
   45      -70.990634
   46      -70.986645
   47      -70.986167
   48      -70.983239
   49      -70.982371
   50      -70.980552
   51      -70.975296
   52      -70.972396
   53      -70.970072
   54      -70.969366
   55      -70.962902
   56      -70.949126
   57      -70.947244
   58      -70.943654
   59      -70.936933
   60      -70.931436
   61      -70.926317
   62      -70.920003
   63      -70.911758
   64      -70.906918
   65      -70.902408
   66      -70.896423
   67      -70.852053
   68      -70.848299
   69      -70.843792
   70      -70.839705
   71      -70.839046
   72      -70.823916
   73      -70.822611
   74      -70.813328
   75      -70.812537
   76      -70.809205
   77      -70.807040
   78      -70.793863
   79      -70.787635
   80      -70.784599
   81      -70.782594
   82      -70.778055
   83      -70.776821
   84      -70.776209
   85      -70.770671
   86      -70.769260
   87      -70.768344
   88      -70.763106
   89      -70.758526
   90      -70.741448
   91      -70.740902
   92      -70.737507
   93      -70.726838
   94      -70.724781
   95      -70.724292
   96      -70.723801
   97      -70.720841
   98      -70.718188
   99      -70.715648
  100      -70.704922
  101      -70.703169
  102      -70.702458
  103      -70.694603
  104      -70.688995
  105      -70.681813
  106      -70.678752
  107      -70.629999
  108      -70.626351
  109      -15.808863
  110      -10.017085
  111       -8.802227
  112       -8.459626
  113       -8.176547
  114       -7.609432
  115       -7.572800
  116       -7.242437
  117       -7.074245
  118       -6.815868
  119       -6.676168
  120       -6.506110
  121       -6.470073
  122       -6.316788
  123       -6.280909
  124       -6.163167
  125       -6.046331
  126       -6.010457
  127       -5.910630
  128       -5.856596
  129       -5.806771
  130       -5.667716
  131       -5.596579
  132       -5.486683
  133       -5.448631
  134       -5.408692
  135       -5.407309
  136       -5.369189
  137       -5.363030
  138       -5.341707
  139       -5.306391
  140       -5.303162
  141       -5.277258
  142       -5.267994
  143       -5.263064
  144       -5.176951
  145       -5.149234
  146       -5.141361
  147       -5.091377
  148       -5.067249
  149       -5.061853
  150       -5.012140
  151       -4.998019
  152       -4.940125
  153       -4.928312
  154       -4.899308
  155       -4.877455
  156       -4.867999
  157       -4.842957
  158       -4.818143
  159       -4.787222
  160       -4.771815
  161       -4.766879
  162       -4.712983
  163       -4.703014
  164       -4.652326
  165       -4.646492
  166       -4.617807
  167       -4.553561
  168       -4.547336
  169       -4.506894
  170       -4.501696
  171       -4.492845
  172       -4.409450
  173       -4.404380
  174       -4.362471
  175       -4.315204
  176       -4.309967
  177       -4.290104
  178       -4.285151
  179       -4.270778
  180       -4.248113
  181       -4.234846
  182       -4.212522
  183       -4.188925
  184       -4.177229
  185       -4.158581
  186       -4.134345
  187       -4.111968
  188       -4.078177
  189       -4.057145
  190       -4.054824
  191       -4.028415
  192       -4.022920
  193       -3.996539
  194       -3.993749
  195       -3.970209
  196       -3.962047
  197       -3.955662
  198       -3.943629
  199       -3.941528
  200       -3.919871
  201       -3.910614
  202       -3.898708
  203       -3.893825
  204       -3.884406
  205       -3.874347
  206       -3.858743
  207       -3.850424
  208       -3.842291
  209       -3.837257
  210       -3.808184
  211       -3.789775
  212       -3.774177
  213       -3.756800
  214       -3.750192
  215       -3.720190
  216       -3.718950
  217       -3.705515
  218       -3.704923
  219       -3.697176
  220       -3.695834
  221       -3.679001
  222       -3.656004
  223       -3.651374
  224       -3.587680
  225       -3.559214
  226       -3.553144
  227       -3.495798