       N       E                     dE             d eps       ncg     rms          rms(c)
DAV:   1     0.609164098295E+04    0.60916E+04   -0.40310E+05  9408   0.161E+03
DAV:   2     0.159083239830E+03   -0.59326E+04   -0.57767E+04  7900   0.532E+02
DAV:   3    -0.165793570239E+03   -0.32488E+03   -0.31531E+03  8160   0.152E+02
DAV:   4    -0.174752018860E+03   -0.89584E+01   -0.88612E+01  7864   0.242E+01
DAV:   5    -0.175092795786E+03   -0.34078E+00   -0.34062E+00  8952   0.425E+00    0.566E+01
DAV:   6    -0.171978521109E+03    0.31143E+01   -0.40337E+02  8580   0.849E+01    0.718E+01
DAV:   7    -0.149660220857E+03    0.22318E+02   -0.65473E+01  8496   0.682E+01    0.428E+01
DAV:   8    -0.167270170299E+03   -0.17610E+02   -0.52058E+01  9056   0.848E+01    0.449E+01
DAV:   9    -0.149478007570E+03    0.17792E+02   -0.12486E+02  8384   0.657E+01    0.268E+01
DAV:  10    -0.145660086130E+03    0.38179E+01   -0.16858E+01 10160   0.325E+01    0.156E+01
DAV:  11    -0.141663251905E+03    0.39968E+01   -0.10753E+01  8412   0.241E+01    0.971E+00
DAV:  12    -0.140655526761E+03    0.10077E+01   -0.29200E+00  9300   0.123E+01    0.643E+00
DAV:  13    -0.140865845040E+03   -0.21032E+00   -0.21725E+00  7912   0.466E+00    0.573E+00
DAV:  14    -0.140908074657E+03   -0.42230E-01   -0.29592E-02  9960   0.881E-01    0.606E+00
DAV:  15    -0.140795839343E+03    0.11224E+00   -0.51527E-02  8232   0.328E+00    0.524E+00
DAV:  16    -0.140706339232E+03    0.89500E-01   -0.42439E-01  8104   0.770E+00    0.672E+00
DAV:  17    -0.140696441942E+03    0.98973E-02   -0.17831E-01  9564   0.280E+00    0.685E+00
DAV:  18    -0.140691649076E+03    0.47929E-02   -0.25447E-02  7776   0.695E-01    0.694E+00
DAV:  19    -0.140688424380E+03    0.32247E-02   -0.12470E-02  7964   0.753E-01    0.733E+00
DAV:  20    -0.140676992883E+03    0.11431E-01   -0.19323E-02  8316   0.104E+00    0.768E+00
DAV:  21    -0.140672694321E+03    0.42986E-02   -0.97899E-03  9624   0.986E-01    0.744E+00
DAV:  22    -0.140673055857E+03   -0.36154E-03   -0.71581E-03  9628   0.454E-01    0.742E+00
DAV:  23    -0.140670190170E+03    0.28657E-02   -0.14320E-03  9608   0.303E-01    0.713E+00
DAV:  24    -0.140666853400E+03    0.33368E-02   -0.32849E-03  7688   0.352E-01    0.636E+00
DAV:  25    -0.140663147301E+03    0.37061E-02   -0.12599E-03  8248   0.218E-01    0.589E+00
DAV:  26    -0.140659899296E+03    0.32480E-02   -0.91804E-04  7828   0.157E-01    0.543E+00
DAV:  27    -0.140655622040E+03    0.42773E-02   -0.18422E-03  7868   0.256E-01    0.495E+00
DAV:  28    -0.140645943427E+03    0.96786E-02   -0.73211E-03  7800   0.495E-01    0.353E+00
DAV:  29    -0.140640595669E+03    0.53478E-02   -0.59551E-03  7876   0.426E-01    0.225E+00
DAV:  30    -0.140638148252E+03    0.24474E-02   -0.33807E-03  7712   0.292E-01    0.132E+00
DAV:  31    -0.140637007694E+03    0.11406E-02   -0.17912E-03  7900   0.237E-01    0.583E-01
DAV:  32    -0.140636894364E+03    0.11333E-03   -0.36896E-04  7748   0.771E-02    0.363E-01
DAV:  33    -0.140636811515E+03    0.82848E-04   -0.30700E-04  7412   0.109E-01    0.130E-01
DAV:  34    -0.140636805763E+03    0.57521E-05   -0.25049E-04  7484   0.893E-02    0.169E-01
DAV:  35    -0.140636827350E+03   -0.21587E-04   -0.39831E-05  6544   0.362E-02    0.138E-01
DAV:  36    -0.140636842847E+03   -0.15497E-04   -0.21839E-05  5328   0.318E-02    0.760E-02
DAV:  37    -0.140636862677E+03   -0.19830E-04   -0.38826E-05  6132   0.357E-02    0.454E-02
DAV:  38    -0.140636872729E+03   -0.10052E-04   -0.35083E-05  6480   0.384E-02    0.103E-02
DAV:  39    -0.140636879279E+03   -0.65498E-05   -0.27629E-06  4484   0.749E-03
   1 F= -.15418540E+03 E0= -.15414054E+03  d E =-.154185E+03
       N       E                     dE             d eps       ncg     rms          rms(c)
DAV:   1    -0.131112698460E+03    0.95242E+01   -0.43045E+02  8784   0.118E+02    0.205E+01
DAV:   2    -0.135187707594E+03   -0.40750E+01   -0.67562E+01  8208   0.221E+01    0.908E+00
DAV:   3    -0.137480783265E+03   -0.22931E+01   -0.13918E+01  9812   0.377E+01    0.122E+01
DAV:   4    -0.135129929110E+03    0.23509E+01   -0.57774E+00  8448   0.297E+01    0.576E+00
DAV:   5    -0.134869155376E+03    0.26077E+00   -0.15417E+00 10476   0.143E+01    0.422E+00
DAV:   6    -0.134821564906E+03    0.47590E-01   -0.79932E-01  8204   0.625E+00    0.225E+00
DAV:   7    -0.134837753037E+03   -0.16188E-01   -0.13861E-01  8376   0.317E+00    0.178E+00
DAV:   8    -0.134824728320E+03    0.13025E-01   -0.18985E-01  8180   0.317E+00    0.910E-01
DAV:   9    -0.134822245810E+03    0.24825E-02   -0.25564E-02  8096   0.179E+00    0.633E-01
DAV:  10    -0.134823087984E+03   -0.84217E-03   -0.19221E-02  7660   0.765E-01    0.511E-01
DAV:  11    -0.134822679014E+03    0.40897E-03   -0.28388E-03  8016   0.689E-01    0.377E-01
DAV:  12    -0.134822586415E+03    0.92599E-04   -0.27792E-03  7892   0.519E-01    0.210E-01
DAV:  13    -0.134822574013E+03    0.12402E-04   -0.17829E-03  8028   0.401E-01    0.125E-01
DAV:  14    -0.134822599006E+03   -0.24993E-04   -0.35386E-04  7540   0.121E-01    0.979E-02
DAV:  15    -0.134822616451E+03   -0.17445E-04   -0.11182E-04  7068   0.118E-01    0.576E-02
DAV:  16    -0.134822680245E+03   -0.63794E-04   -0.88454E-05  6920   0.688E-02    0.267E-02
DAV:  17    -0.134822707324E+03   -0.27079E-04   -0.34993E-05  4580   0.738E-02    0.134E-02
DAV:  18    -0.134822752564E+03   -0.45240E-04   -0.23182E-05  4932   0.406E-02    0.142E-02
DAV:  19    -0.134822771169E+03   -0.18606E-04   -0.80349E-06  4408   0.156E-02    0.157E-02
DAV:  20    -0.134822788334E+03   -0.17164E-04   -0.32650E-06  4380   0.125E-02    0.901E-03
DAV:  21    -0.134822833119E+03   -0.44786E-04   -0.27112E-06  4620   0.909E-03    0.119E-02
DAV:  22    -0.134822857001E+03   -0.23882E-04   -0.17961E-06  4468   0.822E-03    0.958E-03
DAV:  23    -0.134822871132E+03   -0.14130E-04   -0.79754E-07  4468   0.790E-03    0.614E-03
DAV:  24    -0.134822888929E+03   -0.17797E-04   -0.10868E-06  4508   0.758E-03    0.282E-03
DAV:  25    -0.134822901278E+03   -0.12348E-04   -0.17143E-06  4472   0.421E-03    0.293E-03
DAV:  26    -0.134822904164E+03   -0.28860E-05   -0.62342E-07  4440   0.273E-03
   2 F= -.14838190E+03 E0= -.14833108E+03  d E =0.580350E+01
       N       E                     dE             d eps       ncg     rms          rms(c)
DAV:   1    -0.139742132293E+03   -0.49192E+01   -0.39239E+02  7936   0.111E+02    0.168E+01
DAV:   2    -0.157511306156E+03   -0.17769E+02   -0.83133E+01 11108   0.622E+01    0.285E+01
DAV:   3    -0.147230106744E+03    0.10281E+02   -0.69957E+01 10456   0.635E+01    0.195E+01
DAV:   4    -0.140995610207E+03    0.62345E+01   -0.12477E+01 10980   0.296E+01    0.898E+00
DAV:   5    -0.141002706923E+03   -0.70967E-02   -0.44999E+00  8104   0.129E+01    0.563E+00
DAV:   6    -0.140997731186E+03    0.49757E-02   -0.81141E-01  8060   0.460E+00    0.448E+00
DAV:   7    -0.140973635721E+03    0.24095E-01   -0.26615E-01  8280   0.691E+00    0.307E+00
DAV:   8    -0.140919331467E+03    0.54304E-01   -0.14090E-01  8412   0.351E+00    0.157E+00
DAV:   9    -0.140906446695E+03    0.12885E-01   -0.10668E-01  8224   0.341E+00    0.106E+00
DAV:  10    -0.140903572122E+03    0.28746E-02   -0.48468E-02  9504   0.136E+00    0.688E-01
DAV:  11    -0.140901748810E+03    0.18233E-02   -0.65431E-03  9384   0.451E-01    0.491E-01
DAV:  12    -0.140900735052E+03    0.10138E-02   -0.26883E-03  8912   0.571E-01    0.342E-01
DAV:  13    -0.140900222854E+03    0.51220E-03   -0.35599E-03  7900   0.430E-01    0.135E-01
DAV:  14    -0.140900285563E+03   -0.62709E-04   -0.11598E-03  8060   0.234E-01    0.789E-02
DAV:  15    -0.140900355664E+03   -0.70101E-04   -0.32379E-04  7800   0.109E-01    0.827E-02
DAV:  16    -0.140900411743E+03   -0.56079E-04   -0.90798E-05  6712   0.601E-02    0.754E-02
DAV:  17    -0.140900530036E+03   -0.11829E-03   -0.15761E-04  7184   0.118E-01    0.334E-02
DAV:  18    -0.140900553915E+03   -0.23879E-04   -0.46963E-05  6572   0.484E-02    0.236E-02
DAV:  19    -0.140900571813E+03   -0.17898E-04   -0.11311E-05  4656   0.329E-02    0.958E-03
DAV:  20    -0.140900608071E+03   -0.36257E-04   -0.73081E-06  4664   0.197E-02    0.120E-02
DAV:  21    -0.140900632404E+03   -0.24333E-04   -0.56796E-06  4736   0.133E-02    0.102E-02
DAV:  22    -0.140900660254E+03   -0.27850E-04   -0.42837E-06  4676   0.105E-02    0.637E-03
DAV:  23    -0.140900690110E+03   -0.29856E-04   -0.66794E-06  4688   0.688E-03    0.791E-03
DAV:  24    -0.140900699275E+03   -0.91646E-05   -0.17777E-06  4576   0.607E-03
   3 F= -.15444504E+03 E0= -.15439919E+03  d E =-.259643E+00
       N       E                     dE             d eps       ncg     rms          rms(c)
DAV:   1    -0.141051044079E+03   -0.15035E+00   -0.23580E+00  7800   0.895E+00    0.661E-01
DAV:   2    -0.141084242947E+03   -0.33199E-01   -0.32954E-01  8588   0.220E+00    0.764E-01
DAV:   3    -0.141086580460E+03   -0.23375E-02   -0.94311E-02  8488   0.347E+00    0.786E-01
DAV:   4    -0.141075840794E+03    0.10740E-01   -0.21869E-02  7912   0.201E+00    0.270E-01
DAV:   5    -0.141075945402E+03   -0.10461E-03   -0.50429E-03  8804   0.489E-01    0.201E-01
DAV:   6    -0.141075964737E+03   -0.19335E-04   -0.18517E-03  7888   0.319E-01    0.118E-01
DAV:   7    -0.141075928100E+03    0.36637E-04   -0.70276E-04  8000   0.199E-01    0.657E-02
DAV:   8    -0.141075925974E+03    0.21260E-05   -0.21352E-04  7696   0.135E-01    0.490E-02
DAV:   9    -0.141075938769E+03   -0.12795E-04   -0.64487E-05  6708   0.308E-02    0.324E-02
DAV:  10    -0.141075923500E+03    0.15268E-04   -0.61175E-05  6244   0.917E-02    0.167E-02
DAV:  11    -0.141075925647E+03   -0.21463E-05   -0.66863E-06  4652   0.212E-02
   4 F= -.15462024E+03 E0= -.15457363E+03  d E =-.434848E+00
       N       E                     dE             d eps       ncg     rms          rms(c)
DAV:   1    -0.140818542148E+03    0.25738E+00   -0.41520E+01  7928   0.368E+01    0.324E+00
DAV:   2    -0.141293341179E+03   -0.47480E+00   -0.56264E+00  8716   0.839E+00    0.291E+00
DAV:   3    -0.141460644018E+03   -0.16730E+00   -0.15450E+00  8824   0.139E+01    0.372E+00
DAV:   4    -0.141200879325E+03    0.25976E+00   -0.50649E-01  8176   0.935E+00    0.129E+00
DAV:   5    -0.141198153627E+03    0.27257E-02   -0.12379E-01 10032   0.315E+00    0.877E-01
DAV:   6    -0.141196017194E+03    0.21364E-02   -0.48739E-02  8236   0.157E+00    0.432E-01
DAV:   7    -0.141197707382E+03   -0.16902E-02   -0.10405E-02  8336   0.922E-01    0.401E-01
DAV:   8    -0.141197110069E+03    0.59731E-03   -0.74861E-03  7736   0.651E-01    0.160E-01
DAV:   9    -0.141196761473E+03    0.34860E-03   -0.21242E-03  7920   0.601E-01    0.131E-01
DAV:  10    -0.141196613295E+03    0.14818E-03   -0.10451E-03  7604   0.318E-01    0.512E-02
DAV:  11    -0.141196651627E+03   -0.38333E-04   -0.37533E-04  7392   0.104E-01    0.573E-02
DAV:  12    -0.141196651145E+03    0.48196E-06   -0.69028E-05  6652   0.508E-02
   5 F= -.15475627E+03 E0= -.15470702E+03  d E =-.570875E+00
       N       E                     dE             d eps       ncg     rms          rms(c)
DAV:   1    -0.141217072315E+03   -0.20421E-01   -0.10494E+01  7888   0.181E+01    0.164E+00
DAV:   2    -0.141370406056E+03   -0.15333E+00   -0.14518E+00  9504   0.580E+00    0.202E+00
DAV:   3    -0.141351780792E+03    0.18625E-01   -0.55420E-01  9396   0.910E+00    0.186E+00
DAV:   4    -0.141291920283E+03    0.59861E-01   -0.12060E-01  8188   0.470E+00    0.672E-01
DAV:   5    -0.141292829851E+03   -0.90957E-03   -0.34009E-02  8552   0.113E+00    0.544E-01
DAV:   6    -0.141292943759E+03   -0.11391E-03   -0.11379E-02  7872   0.861E-01    0.338E-01
DAV:   7    -0.141291984499E+03    0.95926E-03   -0.54104E-03  7876   0.697E-01    0.187E-01
DAV:   8    -0.141292228141E+03   -0.24364E-03   -0.14210E-03  9092   0.334E-01    0.198E-01
DAV:   9    -0.141292050521E+03    0.17762E-03   -0.10073E-03  7548   0.224E-01    0.667E-02
DAV:  10    -0.141291906042E+03    0.14448E-03   -0.29077E-04  5212   0.228E-01    0.533E-02
DAV:  11    -0.141291907775E+03   -0.17331E-05   -0.11375E-04  7104   0.813E-02    0.218E-02
DAV:  12    -0.141291911049E+03   -0.32737E-05   -0.48004E-05  6696   0.459E-02
   6 F= -.15483629E+03 E0= -.15478821E+03  d E =-.650898E+00
       N       E                     dE             d eps       ncg     rms          rms(c)
DAV:   1    -0.141298152509E+03   -0.62447E-02   -0.44419E-01  7968   0.377E+00    0.312E-01
DAV:   2    -0.141303647787E+03   -0.54953E-02   -0.59047E-02  8824   0.985E-01    0.348E-01
DAV:   3    -0.141304077669E+03   -0.42988E-03   -0.18264E-02  8484   0.160E+00    0.363E-01
DAV:   4    -0.141301847575E+03    0.22301E-02   -0.43819E-03  7836   0.926E-01    0.129E-01
DAV:   5    -0.141301870482E+03   -0.22907E-04   -0.10898E-03  9116   0.253E-01    0.984E-02
DAV:   6    -0.141301870764E+03   -0.28178E-06   -0.41098E-04  8016   0.177E-01    0.513E-02
DAV:   7    -0.141301863214E+03    0.75501E-05   -0.16533E-04  6804   0.110E-01    0.307E-02
DAV:   8    -0.141301869791E+03   -0.65773E-05   -0.47258E-05  6732   0.664E-02
   7 F= -.15486148E+03 E0= -.15481313E+03  d E =-.676082E+00
       N       E                     dE             d eps       ncg     rms          rms(c)
DAV:   1    -0.141302024153E+03   -0.16094E-03   -0.22635E-02  8044   0.849E-01    0.810E-02
DAV:   2    -0.141302570187E+03   -0.54603E-03   -0.34890E-03  9296   0.423E-01    0.143E-01
DAV:   3    -0.141302256532E+03    0.31366E-03   -0.16859E-03  8928   0.514E-01    0.684E-02
DAV:   4    -0.141302193913E+03    0.62619E-04   -0.26785E-04  8092   0.194E-01    0.347E-02
DAV:   5    -0.141302196789E+03   -0.28762E-05   -0.89590E-05  6880   0.547E-02
   8 F= -.15486180E+03 E0= -.15481341E+03  d E =-.676409E+00
       N       E                     dE             d eps       ncg     rms          rms(c)
DAV:   1    -0.138093871241E+03    0.32083E+01   -0.72630E+01 10120   0.102E+02    0.803E+00
DAV:   2    -0.141476823539E+03   -0.33830E+01   -0.34368E+01  7996   0.142E+01    0.428E+00
DAV:   3    -0.141673976038E+03   -0.19715E+00   -0.17260E+00 10320   0.123E+01    0.406E+00
DAV:   4    -0.141577347038E+03    0.96629E-01   -0.81630E-01  8828   0.112E+01    0.286E+00
DAV:   5    -0.141505464897E+03    0.71882E-01   -0.17178E-01 10072   0.488E+00    0.214E+00
DAV:   6    -0.141507791465E+03   -0.23266E-02   -0.61806E-02  8148   0.105E+00    0.187E+00
DAV:   7    -0.141507714359E+03    0.77106E-04   -0.64704E-03  8744   0.460E-01    0.164E+00
DAV:   8    -0.141507695286E+03    0.19073E-04   -0.33953E-03  7960   0.484E-01    0.116E+00
DAV:   9    -0.141506642802E+03    0.10525E-02   -0.56888E-03  8564   0.936E-01    0.417E-01
DAV:  10    -0.141506804994E+03   -0.16219E-03   -0.28402E-03 10608   0.274E-01    0.270E-01
DAV:  11    -0.141506692556E+03    0.11244E-03   -0.63237E-04  7536   0.200E-01    0.207E-01
DAV:  12    -0.141506658741E+03    0.33815E-04   -0.13934E-04  8664   0.132E-01    0.150E-01
DAV:  13    -0.141506698523E+03   -0.39782E-04   -0.16475E-04  9164   0.733E-02    0.826E-02
DAV:  14    -0.141506703954E+03   -0.54310E-05   -0.72990E-05  7104   0.441E-02
   9 F= -.15504397E+03 E0= -.15499584E+03  d E =-.182166E+00
       N       E                     dE             d eps       ncg     rms          rms(c)
DAV:   1    -0.121990700012E+03    0.19516E+02   -0.55510E+02 11132   0.253E+02    0.178E+01
DAV:   2    -0.142496032622E+03   -0.20505E+02   -0.20196E+02  8332   0.467E+01    0.174E+01
DAV:   3    -0.143373012801E+03   -0.87698E+00   -0.21780E+01  8384   0.430E+01    0.112E+01
DAV:   4    -0.143661720163E+03   -0.28871E+00   -0.12541E+01  8512   0.391E+01    0.988E+00
DAV:   5    -0.141636302865E+03    0.20254E+01   -0.31704E+00 10616   0.189E+01    0.497E+00
DAV:   6    -0.141726526764E+03   -0.90224E-01   -0.14886E+00  8052   0.487E+00    0.449E+00
DAV:   7    -0.141725125110E+03    0.14017E-02   -0.11396E-01  8384   0.117E+00    0.400E+00
DAV:   8    -0.141722923591E+03    0.22015E-02   -0.16219E-02  7952   0.751E-01    0.351E+00
DAV:   9    -0.141706293933E+03    0.16630E-01   -0.17589E-02  8232   0.190E+00    0.247E+00
DAV:  10    -0.141700460246E+03    0.58337E-02   -0.64494E-02  9716   0.192E+00    0.103E+00
DAV:  11    -0.141699445401E+03    0.10148E-02   -0.25939E-02  7912   0.905E-01    0.978E-01
DAV:  12    -0.141699642492E+03   -0.19709E-03   -0.33422E-03  7944   0.205E-01    0.100E+00
DAV:  13    -0.141700823486E+03   -0.11810E-02   -0.12015E-03  7888   0.223E-01    0.113E+00
DAV:  14    -0.141699552626E+03    0.12709E-02   -0.51834E-04  9024   0.256E-01    0.998E-01
DAV:  15    -0.141697581465E+03    0.19712E-02   -0.11591E-02  7860   0.672E-01    0.805E-01
DAV:  16    -0.141698596429E+03   -0.10150E-02   -0.56010E-03  7952   0.262E-01    0.994E-01
DAV:  17    -0.141697293137E+03    0.13033E-02   -0.18993E-03  7784   0.324E-01    0.657E-01
DAV:  18    -0.141696915041E+03    0.37810E-03   -0.10658E-03  9248   0.254E-01    0.434E-01
DAV:  19    -0.141696866627E+03    0.48414E-04   -0.48230E-04  7948   0.981E-02    0.344E-01
DAV:  20    -0.141696830419E+03    0.36208E-04   -0.56657E-04  7744   0.105E-01    0.148E-01
DAV:  21    -0.141697140389E+03   -0.30997E-03   -0.10233E-03  7832   0.163E-01    0.283E-01
DAV:  22    -0.141697177508E+03   -0.37119E-04   -0.11824E-04  7264   0.598E-02    0.308E-01
DAV:  23    -0.141696979011E+03    0.19850E-03   -0.17334E-04  7640   0.842E-02    0.187E-01
DAV:  24    -0.141696898315E+03    0.80696E-04   -0.18989E-04  7760   0.547E-02    0.901E-02
DAV:  25    -0.141696899147E+03   -0.83208E-06   -0.13251E-05  4528   0.175E-02
  10 F= -.15522615E+03 E0= -.15517920E+03  d E =-.364347E+00
       N       E                     dE             d eps       ncg     rms          rms(c)
DAV:   1    -0.140954254736E+03    0.74264E+00   -0.16070E+01  9936   0.503E+01    0.300E+00
DAV:   2    -0.141690242208E+03   -0.73599E+00   -0.75173E+00  7876   0.600E+00    0.131E+00
DAV:   3    -0.141706982436E+03   -0.16740E-01   -0.22129E-01  9976   0.220E+00    0.108E+00
DAV:   4    -0.141707665331E+03   -0.68290E-03   -0.30662E-02  8236   0.221E+00    0.971E-01
DAV:   5    -0.141703330507E+03    0.43348E-02   -0.10581E-02  8020   0.130E+00    0.805E-01
DAV:   6    -0.141703247363E+03    0.83144E-04   -0.27125E-03  9392   0.474E-01    0.662E-01
DAV:   7    -0.141703072158E+03    0.17521E-03   -0.20367E-03  7796   0.392E-01    0.224E-01
DAV:   8    -0.141703088732E+03   -0.16575E-04   -0.12606E-03  9568   0.321E-01    0.111E-01
DAV:   9    -0.141703108059E+03   -0.19327E-04   -0.31882E-04  8828   0.108E-01    0.826E-02
DAV:  10    -0.141703122884E+03   -0.14825E-04   -0.11791E-04  6920   0.735E-02    0.634E-02
DAV:  11    -0.141703151716E+03   -0.28832E-04   -0.26332E-05  4392   0.658E-02    0.521E-02
DAV:  12    -0.141703141946E+03    0.97695E-05   -0.25346E-05  4632   0.623E-02
  11 F= -.15523304E+03 E0= -.15518581E+03  d E =-.371236E+00
       N       E                     dE             d eps       ncg     rms          rms(c)
DAV:   1    -0.138682210385E+03    0.30209E+01   -0.73104E+01  9448   0.101E+02    0.781E+00
DAV:   2    -0.141813086148E+03   -0.31309E+01   -0.31899E+01  7932   0.142E+01    0.436E+00
DAV:   3    -0.141944622165E+03   -0.13154E+00   -0.15808E+00  9700   0.107E+01    0.351E+00
DAV:   4    -0.141934241451E+03    0.10381E-01   -0.72048E-01  8556   0.107E+01    0.296E+00
DAV:   5    -0.141845912287E+03    0.88329E-01   -0.21837E-01 10376   0.528E+00    0.209E+00
DAV:   6    -0.141845403389E+03    0.50890E-03   -0.47567E-02  8316   0.117E+00    0.174E+00
DAV:   7    -0.141845925826E+03   -0.52244E-03   -0.10742E-02  8244   0.776E-01    0.138E+00
DAV:   8    -0.141846143093E+03   -0.21727E-03   -0.63645E-03  8180   0.734E-01    0.760E-01
DAV:   9    -0.141844856918E+03    0.12862E-02   -0.69029E-03  9432   0.103E+00    0.341E-01
DAV:  10    -0.141844821408E+03    0.35510E-04   -0.28207E-03  9004   0.282E-01    0.241E-01
DAV:  11    -0.141844768998E+03    0.52411E-04   -0.43784E-04  7616   0.183E-01    0.168E-01
DAV:  12    -0.141844816308E+03   -0.47311E-04   -0.18687E-04  9440   0.971E-02    0.115E-01
DAV:  13    -0.141844849173E+03   -0.32864E-04   -0.12679E-04  7248   0.656E-02    0.658E-02
DAV:  14    -0.141844850362E+03   -0.11897E-05   -0.39311E-05  6652   0.566E-02
  12 F= -.15537019E+03 E0= -.15532296E+03  d E =-.137152E+00
       N       E                     dE             d eps       ncg     rms          rms(c)
DAV:   1    -0.139299078282E+03    0.25458E+01   -0.59348E+01  9448   0.930E+01    0.690E+00
DAV:   2    -0.141866855622E+03   -0.25678E+01   -0.26151E+01  7856   0.130E+01    0.398E+00
DAV:   3    -0.142003404117E+03   -0.13655E+00   -0.14175E+00  9684   0.106E+01    0.335E+00
DAV:   4    -0.141971422038E+03    0.31982E-01   -0.69131E-01  8680   0.107E+01    0.272E+00
DAV:   5    -0.141892644878E+03    0.78777E-01   -0.18836E-01 10812   0.490E+00    0.188E+00
DAV:   6    -0.141892467827E+03    0.17705E-03   -0.42832E-02  8488   0.109E+00    0.154E+00
DAV:   7    -0.141892909814E+03   -0.44199E-03   -0.96081E-03  8092   0.717E-01    0.122E+00
DAV:   8    -0.141893168902E+03   -0.25909E-03   -0.50367E-03  8396   0.654E-01    0.685E-01
DAV:   9    -0.141892046733E+03    0.11222E-02   -0.56417E-03  8956   0.930E-01    0.297E-01
DAV:  10    -0.141892068625E+03   -0.21893E-04   -0.23808E-03  9056   0.255E-01    0.211E-01
DAV:  11    -0.141892046493E+03    0.22132E-04   -0.36775E-04  7844   0.162E-01    0.148E-01
DAV:  12    -0.141892093508E+03   -0.47014E-04   -0.14785E-04  9244   0.810E-02    0.104E-01
DAV:  13    -0.141892126635E+03   -0.33127E-04   -0.90549E-05  7012   0.586E-02    0.621E-02
DAV:  14    -0.141892129918E+03   -0.32830E-05   -0.35190E-05  6808   0.533E-02
  13 F= -.15541125E+03 E0= -.15536455E+03  d E =-.178208E+00
       N       E                     dE             d eps       ncg     rms          rms(c)
DAV:   1    -0.141543373460E+03    0.34875E+00   -0.10520E+01  9332   0.379E+01    0.214E+00
DAV:   2    -0.141941965049E+03   -0.39859E+00   -0.40252E+00  7768   0.528E+00    0.146E+00
DAV:   3    -0.142007332172E+03   -0.65367E-01   -0.40350E-01  8864   0.676E+00    0.189E+00
DAV:   4    -0.141943958343E+03    0.63374E-01   -0.17325E-01  8188   0.550E+00    0.800E-01
DAV:   5    -0.141941191212E+03    0.27671E-02   -0.23332E-02 10596   0.144E+00    0.655E-01
DAV:   6    -0.141940932159E+03    0.25905E-03   -0.82090E-03  8168   0.573E-01    0.454E-01
DAV:   7    -0.141941017339E+03   -0.85181E-04   -0.22418E-03  8464   0.336E-01    0.294E-01
DAV:   8    -0.141941162221E+03   -0.14488E-03   -0.86346E-04  8452   0.280E-01    0.179E-01
DAV:   9    -0.141941132446E+03    0.29774E-04   -0.65081E-04  9140   0.244E-01    0.851E-02
DAV:  10    -0.141941138320E+03   -0.58738E-05   -0.17148E-04  9360   0.844E-02    0.550E-02
DAV:  11    -0.141941142096E+03   -0.37761E-05   -0.36500E-05  6676   0.451E-02
  14 F= -.15545785E+03 E0= -.15541204E+03  d E =-.465966E-01
       N       E                     dE             d eps       ncg     rms          rms(c)
DAV:   1    -0.141851304503E+03    0.89834E-01   -0.26581E+00  9376   0.187E+01    0.979E-01
DAV:   2    -0.141947995764E+03   -0.96691E-01   -0.98579E-01  7684   0.246E+00    0.664E-01
DAV:   3    -0.141959164832E+03   -0.11169E-01   -0.74282E-02  8368   0.278E+00    0.789E-01
DAV:   4    -0.141949457846E+03    0.97070E-02   -0.32763E-02  8112   0.237E+00    0.390E-01
DAV:   5    -0.141948585369E+03    0.87248E-03   -0.44264E-03 11280   0.729E-01    0.304E-01
DAV:   6    -0.141948484546E+03    0.10082E-03   -0.15381E-03  8072   0.300E-01    0.191E-01
DAV:   7    -0.141948578263E+03   -0.93717E-04   -0.52517E-04  8372   0.183E-01    0.113E-01
DAV:   8    -0.141948617563E+03   -0.39300E-04   -0.23731E-04  8064   0.133E-01    0.649E-02
DAV:   9    -0.141948610338E+03    0.72252E-05   -0.10611E-04  7608   0.102E-01    0.276E-02
DAV:  10    -0.141948615254E+03   -0.49158E-05   -0.36192E-05  6872   0.346E-02
  15 F= -.15546408E+03 E0= -.15541879E+03  d E =-.528269E-01
       N       E                     dE             d eps       ncg     rms          rms(c)
DAV:   1    -0.141919018221E+03    0.29592E-01   -0.10176E+00 10328   0.125E+01    0.661E-01
DAV:   2    -0.141964681664E+03   -0.45663E-01   -0.46593E-01  7740   0.138E+00    0.300E-01
DAV:   3    -0.141966394737E+03   -0.17131E-02   -0.16352E-02 10184   0.744E-01    0.274E-01
DAV:   4    -0.141966077335E+03    0.31740E-03   -0.40528E-03  8444   0.752E-01    0.227E-01
DAV:   5    -0.141965749001E+03    0.32833E-03   -0.80929E-04  9896   0.334E-01    0.168E-01
DAV:   6    -0.141965740881E+03    0.81204E-05   -0.21104E-04  7900   0.927E-02    0.133E-01
DAV:   7    -0.141965743949E+03   -0.30681E-05   -0.65057E-05  6972   0.809E-02
  16 F= -.15548191E+03 E0= -.15543666E+03  d E =-.178385E-01
       N       E                     dE             d eps       ncg     rms          rms(c)
DAV:   1    -0.141574433123E+03    0.39131E+00   -0.90236E+00 10208   0.376E+01    0.220E+00
DAV:   2    -0.141997796954E+03   -0.42336E+00   -0.43210E+00  7744   0.428E+00    0.883E-01
DAV:   3    -0.142009599046E+03   -0.11802E-01   -0.14682E-01  9952   0.934E-01    0.720E-01
DAV:   4    -0.142009644597E+03   -0.45551E-04   -0.65659E-03  8536   0.638E-01    0.621E-01
DAV:   5    -0.142009454326E+03    0.19027E-03   -0.33460E-03  7936   0.738E-01    0.558E-01
DAV:   6    -0.142008808500E+03    0.64583E-03   -0.15233E-03  9964   0.502E-01    0.413E-01
DAV:   7    -0.142008534943E+03    0.27356E-03   -0.11646E-03  8188   0.319E-01    0.102E-01
DAV:   8    -0.142008600340E+03   -0.65397E-04   -0.59048E-04 10472   0.146E-01    0.823E-02
DAV:   9    -0.142008587829E+03    0.12511E-04   -0.17889E-04  7368   0.938E-02    0.534E-02
DAV:  10    -0.142008588671E+03   -0.84148E-06   -0.20639E-05  4560   0.422E-02
  17 F= -.15552701E+03 E0= -.15548179E+03  d E =-.629317E-01
       N       E                     dE             d eps       ncg     rms          rms(c)
DAV:   1    -0.140270010392E+03    0.17386E+01   -0.35743E+01 10192   0.754E+01    0.531E+00
DAV:   2    -0.142013140521E+03   -0.17431E+01   -0.17805E+01  7732   0.957E+00    0.221E+00
DAV:   3    -0.142067268275E+03   -0.54128E-01   -0.67727E-01 10904   0.403E+00    0.192E+00
DAV:   4    -0.142069094335E+03   -0.18261E-02   -0.11810E-01  8316   0.379E+00    0.168E+00
DAV:   5    -0.142059476273E+03    0.96181E-02   -0.42015E-02  8228   0.245E+00    0.141E+00
DAV:   6    -0.142057585239E+03    0.18910E-02   -0.82038E-03  8376   0.770E-01    0.119E+00
DAV:   7    -0.142056760943E+03    0.82430E-03   -0.31024E-03  8932   0.535E-01    0.728E-01
DAV:   8    -0.142056154304E+03    0.60664E-03   -0.45561E-03  8668   0.571E-01    0.259E-01
DAV:   9    -0.142056219751E+03   -0.65448E-04   -0.14691E-03 10096   0.318E-01    0.176E-01
DAV:  10    -0.142056212738E+03    0.70133E-05   -0.51115E-04  7720   0.117E-01    0.131E-01
DAV:  11    -0.142056179468E+03    0.33270E-04   -0.60124E-05  6904   0.929E-02    0.859E-02
DAV:  12    -0.142056185656E+03   -0.61881E-05   -0.41469E-05  6108   0.689E-02
  18 F= -.15557959E+03 E0= -.15553452E+03  d E =-.115517E+00
       N       E                     dE             d eps       ncg     rms          rms(c)
DAV:   1    -0.134805390692E+03    0.72508E+01   -0.14500E+02 10864   0.151E+02    0.149E+01
DAV:   2    -0.141881685482E+03   -0.70763E+01   -0.72072E+01  7792   0.206E+01    0.686E+00
DAV:   3    -0.142289834803E+03   -0.40815E+00   -0.40095E+00 10076   0.160E+01    0.636E+00
DAV:   4    -0.142155527465E+03    0.13431E+00   -0.16816E+00  8636   0.148E+01    0.473E+00
DAV:   5    -0.142009570616E+03    0.14596E+00   -0.41853E-01 10640   0.691E+00    0.380E+00
DAV:   6    -0.142013142083E+03   -0.35715E-02   -0.11639E-01  7988   0.156E+00    0.345E+00
DAV:   7    -0.142013041501E+03    0.10058E-03   -0.14211E-02  8776   0.546E-01    0.319E+00
DAV:   8    -0.142011117225E+03    0.19243E-02   -0.65381E-03  7864   0.583E-01    0.254E+00
DAV:   9    -0.142008334601E+03    0.27826E-02   -0.61240E-03  8156   0.101E+00    0.150E+00
DAV:  10    -0.142006709956E+03    0.16246E-02   -0.76670E-03 10412   0.765E-01    0.462E-01
DAV:  11    -0.142006262126E+03    0.44783E-03   -0.29779E-03  8208   0.361E-01    0.341E-01
DAV:  12    -0.142006272407E+03   -0.10281E-04   -0.68811E-04  7792   0.127E-01    0.308E-01
DAV:  13    -0.142006276914E+03   -0.45069E-05   -0.99702E-05  7632   0.612E-02
  19 F= -.15554310E+03 E0= -.15549844E+03  d E =-.790270E-01
       N       E                     dE             d eps       ncg     rms          rms(c)
DAV:   1    -0.138684124993E+03    0.33221E+01   -0.66847E+01 10588   0.106E+02    0.834E+00
DAV:   2    -0.142005453767E+03   -0.33213E+01   -0.33830E+01  7740   0.140E+01    0.455E+00
DAV:   3    -0.142191813376E+03   -0.18636E+00   -0.19377E+00  9840   0.112E+01    0.392E+00
DAV:   4    -0.142164891119E+03    0.26922E-01   -0.89104E-01  8612   0.114E+01    0.315E+00
DAV:   5    -0.142062535976E+03    0.10236E+00   -0.23523E-01 10568   0.550E+00    0.222E+00
DAV:   6    -0.142063905736E+03   -0.13698E-02   -0.56623E-02  8048   0.103E+00    0.194E+00
DAV:   7    -0.142063836210E+03    0.69526E-04   -0.79619E-03  8664   0.451E-01    0.174E+00
DAV:   8    -0.142063232732E+03    0.60348E-03   -0.23672E-03  8004   0.305E-01    0.144E+00
DAV:   9    -0.142061149297E+03    0.20834E-02   -0.37447E-03  8532   0.794E-01    0.643E-01
DAV:  10    -0.142060749922E+03    0.39938E-03   -0.35547E-03 10592   0.402E-01    0.227E-01
DAV:  11    -0.142060795936E+03   -0.46014E-04   -0.95368E-04  7632   0.150E-01    0.209E-01
DAV:  12    -0.142060796436E+03   -0.49965E-06   -0.72496E-05  8044   0.447E-02
  20 F= -.15558793E+03 E0= -.15554300E+03  d E =-.123856E+00
       N       E                     dE             d eps       ncg     rms          rms(c)
DAV:   1    -0.141845419851E+03    0.21538E+00   -0.60289E+00  9404   0.287E+01    0.160E+00
DAV:   2    -0.142076361460E+03   -0.23094E+00   -0.23647E+00  7640   0.369E+00    0.889E-01
DAV:   3    -0.142106783769E+03   -0.30422E-01   -0.17304E-01  8832   0.440E+00    0.130E+00
DAV:   4    -0.142078368976E+03    0.28415E-01   -0.71663E-02  8312   0.342E+00    0.512E-01
DAV:   5    -0.142078221308E+03    0.14767E-03   -0.95704E-03 10524   0.876E-01    0.445E-01
DAV:   6    -0.142077941209E+03    0.28010E-03   -0.33483E-03  8144   0.447E-01    0.312E-01
DAV:   7    -0.142077902418E+03    0.38791E-04   -0.11346E-03  8444   0.364E-01    0.178E-01
DAV:   8    -0.142077863929E+03    0.38489E-04   -0.87356E-04  9060   0.232E-01    0.944E-02
DAV:   9    -0.142077798471E+03    0.65458E-04   -0.37155E-04  8548   0.185E-01    0.568E-02
DAV:  10    -0.142077807628E+03   -0.91569E-05   -0.12663E-04  7160   0.576E-02    0.496E-02
DAV:  11    -0.142077807942E+03   -0.31362E-06   -0.82652E-06  4688   0.187E-02
  21 F= -.15558985E+03 E0= -.15554457E+03  d E =-.191700E-02
       N       E                     dE             d eps       ncg     rms          rms(c)
DAV:   1    -0.142074216822E+03    0.35908E-02   -0.10547E-01  9456   0.386E+00    0.197E-01
DAV:   2    -0.142078300659E+03   -0.40838E-02   -0.39772E-02  8240   0.622E-01    0.169E-01
DAV:   3    -0.142079133291E+03   -0.83263E-03   -0.63188E-03  8284   0.934E-01    0.229E-01
DAV:   4    -0.142078082575E+03    0.10507E-02   -0.19797E-03  7956   0.594E-01    0.657E-02
DAV:   5    -0.142078110122E+03   -0.27547E-04   -0.21080E-04  9644   0.977E-02    0.566E-02
DAV:   6    -0.142078113930E+03   -0.38082E-05   -0.57666E-05  6872   0.474E-02
  22 F= -.15560501E+03 E0= -.15555976E+03  d E =-.170803E-01
       N       E                     dE             d eps       ncg     rms          rms(c)
DAV:   1    -0.141978642553E+03    0.99468E-01   -0.31938E+00  9292   0.217E+01    0.106E+00
DAV:   2    -0.142097153839E+03   -0.11851E+00   -0.12070E+00  7600   0.266E+00    0.574E-01
DAV:   3    -0.142106309086E+03   -0.91552E-02   -0.60097E-02  8192   0.233E+00    0.674E-01
DAV:   4    -0.142099851108E+03    0.64580E-02   -0.23900E-02  8260   0.202E+00    0.364E-01
DAV:   5    -0.142099127058E+03    0.72405E-03   -0.41139E-03 11764   0.663E-01    0.279E-01
DAV:   6    -0.142099042975E+03    0.84083E-04   -0.11352E-03  8784   0.226E-01    0.201E-01
DAV:   7    -0.142099078536E+03   -0.35561E-04   -0.31058E-04  8112   0.169E-01    0.145E-01
DAV:   8    -0.142099102843E+03   -0.24307E-04   -0.23724E-04  8572   0.141E-01    0.731E-02
DAV:   9    -0.142099096677E+03    0.61660E-05   -0.16003E-04  8944   0.131E-01    0.322E-02
DAV:  10    -0.142099101995E+03   -0.53173E-05   -0.59493E-05  7356   0.375E-02
  23 F= -.15560963E+03 E0= -.15556478E+03  d E =-.462089E-02
       N       E                     dE             d eps       ncg     rms          rms(c)
DAV:   1    -0.141008586059E+03    0.10905E+01   -0.28330E+01  9276   0.645E+01    0.366E+00
DAV:   2    -0.142118381589E+03   -0.11098E+01   -0.11282E+01  7712   0.837E+00    0.198E+00
DAV:   3    -0.142218573062E+03   -0.10019E+00   -0.67146E-01 10580   0.768E+00    0.234E+00
DAV:   4    -0.142152184283E+03    0.66389E-01   -0.29990E-01  8404   0.701E+00    0.142E+00
DAV:   5    -0.142136825634E+03    0.15359E-01   -0.52310E-02 10264   0.244E+00    0.103E+00
DAV:   6    -0.142136679048E+03    0.14659E-03   -0.17526E-02  8572   0.714E-01    0.783E-01
DAV:   7    -0.142136453600E+03    0.22545E-03   -0.40024E-03  8028   0.481E-01    0.500E-01
DAV:   8    -0.142136511016E+03   -0.57416E-04   -0.23857E-03  9040   0.435E-01    0.254E-01
DAV:   9    -0.142136361157E+03    0.14986E-03   -0.14995E-03  9752   0.376E-01    0.151E-01
DAV:  10    -0.142136391032E+03   -0.29875E-04   -0.39054E-04  8296   0.104E-01    0.107E-01
DAV:  11    -0.142136386029E+03    0.50034E-05   -0.93093E-05  7408   0.831E-02
  24 F= -.15564376E+03 E0= -.15560023E+03  d E =-.387477E-01
       N       E                     dE             d eps       ncg     rms          rms(c)
DAV:   1    -0.141997312121E+03    0.13908E+00   -0.37836E+00  9332   0.233E+01    0.114E+00
DAV:   2    -0.142136838559E+03   -0.13953E+00   -0.14259E+00  7696   0.277E+00    0.594E-01
DAV:   3    -0.142141697651E+03   -0.48591E-02   -0.49456E-02  9824   0.149E+00    0.512E-01
DAV:   4    -0.142141370314E+03    0.32734E-03   -0.17519E-02  8288   0.162E+00    0.466E-01
DAV:   5    -0.142139371666E+03    0.19986E-02   -0.48249E-03  9440   0.847E-01    0.315E-01
DAV:   6    -0.142139272923E+03    0.98744E-04   -0.11412E-03  9948   0.290E-01    0.216E-01
DAV:   7    -0.142139345405E+03   -0.72482E-04   -0.46429E-04  8484   0.191E-01    0.111E-01
DAV:   8    -0.142139331396E+03    0.14009E-04   -0.31142E-04  8808   0.158E-01    0.491E-02
DAV:   9    -0.142139328266E+03    0.31298E-05   -0.73399E-05  6276   0.827E-02
  25 F= -.15564615E+03 E0= -.15560316E+03  d E =-.411416E-01
       N       E                     dE             d eps       ncg     rms          rms(c)
DAV:   1    -0.141995862545E+03    0.14347E+00   -0.52548E+00  8792   0.233E+01    0.117E+00
DAV:   2    -0.142142026863E+03   -0.14616E+00   -0.14978E+00  7712   0.299E+00    0.644E-01
DAV:   3    -0.142155184821E+03   -0.13158E-01   -0.83923E-02  8400   0.286E+00    0.879E-01
DAV:   4    -0.142143592877E+03    0.11592E-01   -0.31866E-02  8356   0.221E+00    0.383E-01
DAV:   5    -0.142143754518E+03   -0.16164E-03   -0.55289E-03 11316   0.716E-01    0.338E-01
DAV:   6    -0.142143361100E+03    0.39342E-03   -0.17400E-03  8264   0.428E-01    0.212E-01
DAV:   7    -0.142143458388E+03   -0.97288E-04   -0.96984E-04  9004   0.347E-01    0.119E-01
DAV:   8    -0.142143407354E+03    0.51034E-04   -0.69874E-04  9068   0.217E-01    0.558E-02
DAV:   9    -0.142143393823E+03    0.13531E-04   -0.20084E-04  7924   0.129E-01    0.322E-02
DAV:  10    -0.142143400896E+03   -0.70731E-05   -0.91793E-05  6704   0.412E-02
  26 F= -.15565186E+03 E0= -.15560906E+03  d E =-.570884E-02
       N       E                     dE             d eps       ncg     rms          rms(c)
DAV:   1    -0.142137239932E+03    0.61539E-02   -0.25552E-01  8816   0.511E+00    0.251E-01
DAV:   2    -0.142144217376E+03   -0.69774E-02   -0.71685E-02  7628   0.667E-01    0.151E-01
DAV:   3    -0.142144789871E+03   -0.57249E-03   -0.40945E-03  7852   0.622E-01    0.191E-01
DAV:   4    -0.142144282460E+03    0.50741E-03   -0.14564E-03  8264   0.475E-01    0.880E-02
DAV:   5    -0.142144277677E+03    0.47834E-05   -0.20324E-04  9084   0.156E-01    0.748E-02
DAV:   6    -0.142144276830E+03    0.84681E-06   -0.89312E-05  7112   0.924E-02
  27 F= -.15565236E+03 E0= -.15560958E+03  d E =-.620145E-02
       N       E                     dE             d eps       ncg     rms          rms(c)
DAV:   1    -0.142043415757E+03    0.10086E+00   -0.31648E+00  9104   0.202E+01    0.986E-01
DAV:   2    -0.142148261386E+03   -0.10485E+00   -0.10753E+00  7668   0.245E+00    0.447E-01
DAV:   3    -0.142150527384E+03   -0.22660E-02   -0.29724E-02  9660   0.567E-01    0.317E-01
DAV:   4    -0.142150375071E+03    0.15231E-03   -0.17406E-03  8604   0.270E-01    0.272E-01
DAV:   5    -0.142150300822E+03    0.74248E-04   -0.43801E-04  8024   0.258E-01    0.201E-01
DAV:   6    -0.142150818276E+03   -0.51745E-03   -0.17121E-03  8212   0.534E-01    0.186E-01
DAV:   7    -0.142150283307E+03    0.53497E-03   -0.12272E-03 10568   0.450E-01    0.359E-02
DAV:   8    -0.142150313714E+03   -0.30407E-04   -0.24303E-04  9356   0.886E-02    0.278E-02
DAV:   9    -0.142150317929E+03   -0.42147E-05   -0.32346E-05  6520   0.258E-02
  28 F= -.15566109E+03 E0= -.15561876E+03  d E =-.873720E-02
       N       E                     dE             d eps       ncg     rms          rms(c)
DAV:   1    -0.142012171110E+03    0.13814E+00   -0.41328E+00  9096   0.231E+01    0.113E+00
DAV:   2    -0.142149370122E+03   -0.13720E+00   -0.14054E+00  7668   0.280E+00    0.530E-01
DAV:   3    -0.142153108561E+03   -0.37384E-02   -0.41635E-02 11308   0.109E+00    0.432E-01
DAV:   4    -0.142153312643E+03   -0.20408E-03   -0.98278E-03  8372   0.118E+00    0.419E-01
DAV:   5    -0.142151899757E+03    0.14129E-02   -0.35505E-03  8136   0.739E-01    0.276E-01
DAV:   6    -0.142151972354E+03   -0.72597E-04   -0.11998E-03  9780   0.380E-01    0.168E-01
DAV:   7    -0.142152010736E+03   -0.38381E-04   -0.63735E-04  9408   0.225E-01    0.665E-02
DAV:   8    -0.142151971830E+03    0.38906E-04   -0.27243E-04  8232   0.137E-01    0.339E-02
DAV:   9    -0.142151981170E+03   -0.93405E-05   -0.68338E-05  7284   0.385E-02
  29 F= -.15566590E+03 E0= -.15562411E+03  d E =-.135471E-01
       N       E                     dE             d eps       ncg     rms          rms(c)
DAV:   1    -0.142137868006E+03    0.14104E-01   -0.40072E-01  9136   0.714E+00    0.337E-01
DAV:   2    -0.142151012395E+03   -0.13144E-01   -0.13486E-01  7512   0.869E-01    0.175E-01
DAV:   3    -0.142151591895E+03   -0.57950E-03   -0.46770E-03  8076   0.518E-01    0.168E-01
DAV:   4    -0.142151337828E+03    0.25407E-03   -0.15611E-03  8336   0.474E-01    0.123E-01
DAV:   5    -0.142151257813E+03    0.80015E-04   -0.36996E-04  8932   0.218E-01    0.789E-02
DAV:   6    -0.142151272303E+03   -0.14490E-04   -0.15990E-04  8764   0.127E-01    0.479E-02
DAV:   7    -0.142151289963E+03   -0.17659E-04   -0.52819E-05  7008   0.597E-02    0.293E-02
DAV:   8    -0.142151285977E+03    0.39855E-05   -0.33497E-05  5064   0.521E-02
  30 F= -.15566620E+03 E0= -.15562461E+03  d E =-.138434E-01
       N       E                     dE             d eps       ncg     rms          rms(c)
DAV:   1    -0.142057513307E+03    0.93777E-01   -0.23913E+00  9448   0.187E+01    0.933E-01
DAV:   2    -0.142149960939E+03   -0.92448E-01   -0.94354E-01  7564   0.227E+00    0.497E-01
DAV:   3    -0.142158443818E+03   -0.84829E-02   -0.53765E-02  8604   0.214E+00    0.653E-01
DAV:   4    -0.142151823333E+03    0.66205E-02   -0.20190E-02  8280   0.176E+00    0.309E-01
DAV:   5    -0.142151594052E+03    0.22928E-03   -0.25378E-03 11188   0.491E-01    0.256E-01
DAV:   6    -0.142151551041E+03    0.43011E-04   -0.79307E-04  8152   0.195E-01    0.190E-01
DAV:   7    -0.142151591877E+03   -0.40837E-04   -0.23054E-04  8052   0.149E-01    0.118E-01
DAV:   8    -0.142151628554E+03   -0.36676E-04   -0.19111E-04  8224   0.120E-01    0.566E-02
DAV:   9    -0.142151633368E+03   -0.48144E-05   -0.10966E-04  8152   0.926E-02    0.318E-02
DAV:  10    -0.142151637804E+03   -0.44357E-05   -0.33169E-05  6420   0.268E-02
  31 F= -.15566984E+03 E0= -.15562831E+03  d E =-.364264E-02
       N       E                     dE             d eps       ncg     rms          rms(c)
DAV:   1    -0.142148502398E+03    0.31310E-02   -0.68667E-02  9520   0.316E+00    0.154E-01
DAV:   2    -0.142151106820E+03   -0.26044E-02   -0.26830E-02  7488   0.377E-01    0.833E-02
DAV:   3    -0.142151315918E+03   -0.20910E-03   -0.13160E-03  8312   0.315E-01    0.972E-02
DAV:   4    -0.142151175964E+03    0.13995E-03   -0.52163E-04  7792   0.283E-01    0.550E-02
DAV:   5    -0.142151163283E+03    0.12681E-04   -0.67633E-05  5468   0.985E-02    0.377E-02
DAV:   6    -0.142151167382E+03   -0.40991E-05   -0.27186E-05  5644   0.402E-02
  32 F= -.15566993E+03 E0= -.15562838E+03  d E =-.373240E-02
       N       E                     dE             d eps       ncg     rms          rms(c)
DAV:   1    -0.142031686138E+03    0.11948E+00   -0.27214E+00  9624   0.212E+01    0.107E+00
DAV:   2    -0.142149300674E+03   -0.11761E+00   -0.12020E+00  7632   0.247E+00    0.480E-01
DAV:   3    -0.142151875963E+03   -0.25753E-02   -0.26920E-02 11004   0.101E+00    0.410E-01
DAV:   4    -0.142151363391E+03    0.51257E-03   -0.63430E-03  8320   0.925E-01    0.350E-01
DAV:   5    -0.142150830642E+03    0.53275E-03   -0.17556E-03  7976   0.497E-01    0.272E-01
DAV:   6    -0.142150801695E+03    0.28947E-04   -0.59369E-04  8928   0.231E-01    0.176E-01
DAV:   7    -0.142150894279E+03   -0.92585E-04   -0.34950E-04  8696   0.168E-01    0.678E-02
DAV:   8    -0.142150888199E+03    0.60805E-05   -0.25818E-04  9028   0.122E-01    0.265E-02
DAV:   9    -0.142150896058E+03   -0.78591E-05   -0.32320E-05  6104   0.336E-02
  33 F= -.15567359E+03 E0= -.15563236E+03  d E =-.366216E-02
       N       E                     dE             d eps       ncg     rms          rms(c)
DAV:   1    -0.142120418328E+03    0.30470E-01   -0.67099E-01  9644   0.105E+01    0.511E-01
DAV:   2    -0.142148707934E+03   -0.28290E-01   -0.28973E-01  7556   0.121E+00    0.234E-01
DAV:   3    -0.142149637436E+03   -0.92950E-03   -0.91291E-03 10676   0.526E-01    0.194E-01
DAV:   4    -0.142149531857E+03    0.10558E-03   -0.19295E-03  8428   0.488E-01    0.172E-01
DAV:   5    -0.142149371413E+03    0.16044E-03   -0.49263E-04  7736   0.266E-01    0.127E-01
DAV:   6    -0.142149384802E+03   -0.13389E-04   -0.16212E-04  8848   0.124E-01    0.793E-02
DAV:   7    -0.142149423939E+03   -0.39137E-04   -0.78864E-05  7736   0.775E-02    0.331E-02
DAV:   8    -0.142149421612E+03    0.23273E-05   -0.63241E-05  6808   0.628E-02
  34 F= -.15567409E+03 E0= -.15563305E+03  d E =-.415815E-02
       N       E                     dE             d eps       ncg     rms          rms(c)
DAV:   1    -0.142074924117E+03    0.74500E-01   -0.16481E+00  9628   0.172E+01    0.840E-01
DAV:   2    -0.142147519030E+03   -0.72595E-01   -0.74220E-01  7588   0.198E+00    0.390E-01
DAV:   3    -0.142151104315E+03   -0.35853E-02   -0.27576E-02 10772   0.124E+00    0.418E-01
DAV:   4    -0.142149200363E+03    0.19040E-02   -0.77091E-03  8360   0.106E+00    0.271E-01
DAV:   5    -0.142148982825E+03    0.21754E-03   -0.10061E-03  9952   0.334E-01    0.216E-01
DAV:   6    -0.142148978553E+03    0.42723E-05   -0.36034E-04  8232   0.133E-01    0.172E-01
DAV:   7    -0.142149029701E+03   -0.51148E-04   -0.11622E-04  7692   0.114E-01    0.794E-02
DAV:   8    -0.142149057455E+03   -0.27754E-04   -0.12716E-04  8844   0.801E-02    0.302E-02
DAV:   9    -0.142149063875E+03   -0.64202E-05   -0.31921E-05  5544   0.431E-02
  35 F= -.15567656E+03 E0= -.15563558E+03  d E =-.247106E-02
       N       E                     dE             d eps       ncg     rms          rms(c)
DAV:   1    -0.142074898600E+03    0.74159E-01   -0.16104E+00  9636   0.170E+01    0.825E-01
DAV:   2    -0.142145589642E+03   -0.70691E-01   -0.72213E-01  7572   0.196E+00    0.390E-01
DAV:   3    -0.142149814369E+03   -0.42247E-02   -0.29592E-02 10292   0.139E+00    0.447E-01
DAV:   4    -0.142147213334E+03    0.26010E-02   -0.91680E-03  8600   0.115E+00    0.267E-01
DAV:   5    -0.142147022971E+03    0.19036E-03   -0.10612E-03 10248   0.321E-01    0.209E-01
DAV:   6    -0.142147024354E+03   -0.13834E-05   -0.36922E-04  8260   0.127E-01    0.168E-01
DAV:   7    -0.142147079067E+03   -0.54713E-04   -0.11450E-04  7552   0.116E-01    0.831E-02
DAV:   8    -0.142147102128E+03   -0.23060E-04   -0.13043E-04  8836   0.850E-02    0.285E-02
DAV:   9    -0.142147108213E+03   -0.60857E-05   -0.34944E-05  5684   0.438E-02
  36 F= -.15567741E+03 E0= -.15563649E+03  d E =-.332190E-02
       N       E                     dE             d eps       ncg     rms          rms(c)
DAV:   1    -0.142115883700E+03    0.31218E-01   -0.69667E-01  9816   0.113E+01    0.531E-01
DAV:   2    -0.142146208728E+03   -0.30325E-01   -0.31059E-01  7520   0.129E+00    0.246E-01
DAV:   3    -0.142147123701E+03   -0.91497E-03   -0.95223E-03  9752   0.502E-01    0.191E-01
DAV:   4    -0.142147083842E+03    0.39859E-04   -0.15610E-03  8308   0.433E-01    0.173E-01
DAV:   5    -0.142146936690E+03    0.14715E-03   -0.50741E-04  7988   0.279E-01    0.137E-01
DAV:   6    -0.142146928855E+03    0.78354E-05   -0.12224E-04  8384   0.114E-01    0.990E-02
DAV:   7    -0.142146964372E+03   -0.35517E-04   -0.58926E-05  6768   0.808E-02    0.466E-02
DAV:   8    -0.142146976116E+03   -0.11744E-04   -0.74485E-05  7644   0.664E-02    0.164E-02
DAV:   9    -0.142146980031E+03   -0.39155E-05   -0.12864E-05  4692   0.253E-02
  37 F= -.15567904E+03 E0= -.15563827E+03  d E =-.163143E-02
       N       E                     dE             d eps       ncg     rms          rms(c)
DAV:   1    -0.142102199719E+03    0.44776E-01   -0.98341E-01  9752   0.135E+01    0.634E-01
DAV:   2    -0.142145033578E+03   -0.42834E-01   -0.43843E-01  7536   0.153E+00    0.293E-01
DAV:   3    -0.142146447580E+03   -0.14140E-02   -0.13686E-02 10208   0.690E-01    0.242E-01
DAV:   4    -0.142146262171E+03    0.18541E-03   -0.28915E-03  8384   0.609E-01    0.211E-01
DAV:   5    -0.142146020651E+03    0.24152E-03   -0.69928E-04  8632   0.315E-01    0.161E-01
DAV:   6    -0.142146022715E+03   -0.20642E-05   -0.18536E-04  8748   0.117E-01    0.118E-01
DAV:   7    -0.142146068343E+03   -0.45628E-04   -0.80661E-05  7756   0.925E-02    0.569E-02
DAV:   8    -0.142146079570E+03   -0.11227E-04   -0.96394E-05  8012   0.829E-02    0.176E-02
DAV:   9    -0.142146083285E+03   -0.37148E-05   -0.19866E-05  4976   0.296E-02
  38 F= -.15568024E+03 E0= -.15563966E+03  d E =-.283115E-02
       N       E                     dE             d eps       ncg     rms          rms(c)
DAV:   1    -0.141964577169E+03    0.18150E+00   -0.39151E+00  9756   0.270E+01    0.132E+00
DAV:   2    -0.142137701496E+03   -0.17312E+00   -0.17696E+00  7612   0.309E+00    0.591E-01
DAV:   3    -0.142143661408E+03   -0.59599E-02   -0.58609E-02 11412   0.142E+00    0.520E-01
DAV:   4    -0.142142933387E+03    0.72802E-03   -0.12258E-02  8352   0.131E+00    0.451E-01
DAV:   5    -0.142141781484E+03    0.11519E-02   -0.29802E-03  8000   0.653E-01    0.344E-01
DAV:   6    -0.142141761330E+03    0.20154E-04   -0.80407E-04  8820   0.217E-01    0.261E-01
DAV:   7    -0.142141853113E+03   -0.91783E-04   -0.33527E-04  8440   0.186E-01    0.122E-01
DAV:   8    -0.142141868944E+03   -0.15831E-04   -0.38900E-04  9176   0.165E-01    0.408E-02
DAV:   9    -0.142141880511E+03   -0.11567E-04   -0.90026E-05  8296   0.634E-02    0.334E-02
DAV:  10    -0.142141882577E+03   -0.20666E-05   -0.30180E-05  5924   0.317E-02
  39 F= -.15568025E+03 E0= -.15564007E+03  d E =-.284266E-02
       N       E                     dE             d eps       ncg     rms          rms(c)
DAV:   1    -0.142093973835E+03    0.47907E-01   -0.11374E+00  9760   0.145E+01    0.687E-01
DAV:   2    -0.142143304749E+03   -0.49331E-01   -0.50502E-01  7608   0.165E+00    0.303E-01
DAV:   3    -0.142144779147E+03   -0.14744E-02   -0.15585E-02 10252   0.636E-01    0.239E-01
DAV:   4    -0.142144740222E+03    0.38925E-04   -0.25376E-03  8200   0.545E-01    0.220E-01
DAV:   5    -0.142144477570E+03    0.26265E-03   -0.71951E-04  7860   0.331E-01    0.174E-01
DAV:   6    -0.142144469752E+03    0.78178E-05   -0.16677E-04  9172   0.117E-01    0.131E-01
DAV:   7    -0.142144523014E+03   -0.53262E-04   -0.97359E-05  8060   0.104E-01    0.537E-02
DAV:   8    -0.142144533968E+03   -0.10954E-04   -0.10598E-04  8400   0.843E-02    0.184E-02
DAV:   9    -0.142144539524E+03   -0.55556E-05   -0.20547E-05  5052   0.319E-02
  40 F= -.15568064E+03 E0= -.15564024E+03  d E =-.323216E-02
       N       E                     dE             d eps       ncg     rms          rms(c)
DAV:   1    -0.142126053236E+03    0.18481E-01   -0.41826E-01  9764   0.878E+00    0.403E-01
DAV:   2    -0.142144111664E+03   -0.18058E-01   -0.18481E-01  7512   0.989E-01    0.182E-01
DAV:   3    -0.142144979745E+03   -0.86808E-03   -0.67480E-03  8552   0.590E-01    0.194E-01
DAV:   4    -0.142144520275E+03    0.45947E-03   -0.14883E-03  9168   0.446E-01    0.125E-01
DAV:   5    -0.142144506269E+03    0.14006E-04   -0.18742E-04 10024   0.118E-01    0.103E-01
DAV:   6    -0.142144508514E+03   -0.22455E-05   -0.59623E-05  6952   0.625E-02
  41 F= -.15568175E+03 E0= -.15564137E+03  d E =-.110530E-02
       N       E                     dE             d eps       ncg     rms          rms(c)
DAV:   1    -0.141974186732E+03    0.17032E+00   -0.37483E+00  9736   0.264E+01    0.123E+00
DAV:   2    -0.142138832148E+03   -0.16465E+00   -0.16809E+00  7680   0.296E+00    0.553E-01
DAV:   3    -0.142142881547E+03   -0.40494E-02   -0.50138E-02  9952   0.676E-01    0.425E-01
DAV:   4    -0.142143087740E+03   -0.20619E-03   -0.43985E-03  8540   0.555E-01    0.394E-01
DAV:   5    -0.142142597721E+03    0.49002E-03   -0.14688E-03  7724   0.477E-01    0.347E-01
DAV:   6    -0.142142511272E+03    0.86449E-04   -0.36517E-04  9632   0.245E-01    0.265E-01
DAV:   7    -0.142142528510E+03   -0.17238E-04   -0.53406E-04  8356   0.250E-01    0.600E-02
DAV:   8    -0.142142565765E+03   -0.37255E-04   -0.30000E-04 10448   0.817E-02    0.404E-02
DAV:   9    -0.142142569277E+03   -0.35120E-05   -0.52591E-05  6936   0.488E-02
  42 F= -.15568324E+03 E0= -.15564306E+03  d E =-.259858E-02
       N       E                     dE             d eps       ncg     rms          rms(c)
DAV:   1    -0.142115694208E+03    0.26872E-01   -0.60643E-01  9692   0.104E+01    0.477E-01
DAV:   2    -0.142141572680E+03   -0.25878E-01   -0.26418E-01  7552   0.122E+00    0.260E-01
DAV:   3    -0.142143320536E+03   -0.17479E-02   -0.12276E-02  7972   0.970E-01    0.287E-01
DAV:   4    -0.142142235645E+03    0.10849E-02   -0.42595E-03  8216   0.789E-01    0.166E-01
DAV:   5    -0.142142121256E+03    0.11439E-03   -0.63547E-04 11464   0.270E-01    0.127E-01
DAV:   6    -0.142142118479E+03    0.27771E-05   -0.17692E-04  7780   0.101E-01    0.947E-02
DAV:   7    -0.142142130466E+03   -0.11987E-04   -0.47336E-05  6264   0.607E-02    0.701E-02
DAV:   8    -0.142142153403E+03   -0.22937E-04   -0.45492E-05  7040   0.563E-02    0.322E-02
DAV:   9    -0.142142162066E+03   -0.86629E-05   -0.19644E-05  5084   0.386E-02
  43 F= -.15568426E+03 E0= -.15564422E+03  d E =-.102009E-02
       N       E                     dE             d eps       ncg     rms          rms(c)
DAV:   1    -0.142120673054E+03    0.21480E-01   -0.46827E-01  9696   0.919E+00    0.424E-01
DAV:   2    -0.142140687806E+03   -0.20015E-01   -0.20491E-01  7528   0.106E+00    0.217E-01
DAV:   3    -0.142141800866E+03   -0.11131E-02   -0.83392E-03  8100   0.734E-01    0.224E-01
DAV:   4    -0.142141241549E+03    0.55932E-03   -0.26704E-03  8316   0.623E-01    0.143E-01
DAV:   5    -0.142141137810E+03    0.10374E-03   -0.46774E-04 11200   0.237E-01    0.108E-01
DAV:   6    -0.142141136992E+03    0.81820E-06   -0.11815E-04  7696   0.820E-02    0.806E-02
DAV:   7    -0.142141151401E+03   -0.14409E-04   -0.30763E-05  4828   0.524E-02    0.587E-02
DAV:   8    -0.142141169940E+03   -0.18539E-04   -0.40305E-05  6948   0.528E-02    0.248E-02
DAV:   9    -0.142141176288E+03   -0.63487E-05   -0.15254E-05  4888   0.343E-02
  44 F= -.15568454E+03 E0= -.15564464E+03  d E =-.129322E-02
       N       E                     dE             d eps       ncg     rms          rms(c)
DAV:   1    -0.142130809911E+03    0.10360E-01   -0.23046E-01  9824   0.659E+00    0.296E-01
DAV:   2    -0.142140709484E+03   -0.98996E-02   -0.10172E-01  7568   0.745E-01    0.134E-01
DAV:   3    -0.142141039704E+03   -0.33022E-03   -0.31171E-03  9776   0.288E-01    0.109E-01
DAV:   4    -0.142140978305E+03    0.61398E-04   -0.54110E-04  8128   0.247E-01    0.958E-02
DAV:   5    -0.142140943131E+03    0.35174E-04   -0.10325E-04  5592   0.125E-01    0.750E-02
DAV:   6    -0.142140951536E+03   -0.84045E-05   -0.39131E-05  6028   0.540E-02
  45 F= -.15568519E+03 E0= -.15564530E+03  d E =-.651529E-03
       N       E                     dE             d eps       ncg     rms          rms(c)
DAV:   1    -0.142047570507E+03    0.93373E-01   -0.20714E+00  9728   0.198E+01    0.896E-01
DAV:   2    -0.142137454117E+03   -0.89884E-01   -0.91960E-01  7668   0.223E+00    0.406E-01
DAV:   3    -0.142139711976E+03   -0.22579E-02   -0.25470E-02 11404   0.686E-01    0.322E-01
DAV:   4    -0.142139737852E+03   -0.25877E-04   -0.40142E-03  8148   0.668E-01    0.309E-01
DAV:   5    -0.142139250501E+03    0.48735E-03   -0.11460E-03  7788   0.422E-01    0.243E-01
DAV:   6    -0.142139249790E+03    0.71025E-06   -0.28372E-04  9728   0.167E-01    0.182E-01
DAV:   7    -0.142139332070E+03   -0.82279E-04   -0.22231E-04  8100   0.149E-01    0.594E-02
DAV:   8    -0.142139357324E+03   -0.25254E-04   -0.14311E-04  8936   0.794E-02    0.273E-02
DAV:   9    -0.142139363222E+03   -0.58988E-05   -0.20235E-05  4964   0.338E-02
  46 F= -.15568624E+03 E0= -.15564648E+03  d E =-.170119E-02
       N       E                     dE             d eps       ncg     rms          rms(c)
DAV:   1    -0.142118529164E+03    0.20828E-01   -0.46106E-01  9696   0.921E+00    0.428E-01
DAV:   2    -0.142138426774E+03   -0.19898E-01   -0.20443E-01  7568   0.105E+00    0.205E-01
DAV:   3    -0.142139199012E+03   -0.77224E-03   -0.68555E-03  8748   0.554E-01    0.186E-01
DAV:   4    -0.142138935617E+03    0.26339E-03   -0.16274E-03  8576   0.463E-01    0.140E-01
DAV:   5    -0.142138861756E+03    0.73861E-04   -0.35420E-04  9940   0.209E-01    0.109E-01
DAV:   6    -0.142138869113E+03   -0.73567E-05   -0.10113E-04  7700   0.962E-02    0.778E-02
DAV:   7    -0.142138901089E+03   -0.31977E-04   -0.39317E-05  5608   0.643E-02    0.426E-02
DAV:   8    -0.142138915229E+03   -0.14140E-04   -0.53231E-05  7248   0.557E-02    0.150E-02
DAV:   9    -0.142138919957E+03   -0.47282E-05   -0.10506E-05  4708   0.251E-02
  47 F= -.15568699E+03 E0= -.15564733E+03  d E =-.748866E-03
       N       E                     dE             d eps       ncg     rms          rms(c)
DAV:   1    -0.142136227149E+03    0.26881E-02   -0.53180E-02  9816   0.313E+00    0.144E-01
DAV:   2    -0.142138500490E+03   -0.22733E-02   -0.23493E-02  7592   0.361E-01    0.728E-02
DAV:   3    -0.142138642790E+03   -0.14230E-03   -0.96150E-04  8116   0.257E-01    0.793E-02
DAV:   4    -0.142138555819E+03    0.86972E-04   -0.29532E-04  7372   0.207E-01    0.466E-02
DAV:   5    -0.142138551979E+03    0.38402E-05   -0.39059E-05  4924   0.705E-02
  48 F= -.15568702E+03 E0= -.15564740E+03  d E =-.786265E-03
       N       E                     dE             d eps       ncg     rms          rms(c)
DAV:   1    -0.142122755951E+03    0.15800E-01   -0.34094E-01  9972   0.791E+00    0.358E-01
DAV:   2    -0.142138017786E+03   -0.15262E-01   -0.15605E-01  7532   0.900E-01    0.187E-01
DAV:   3    -0.142138545538E+03   -0.52775E-03   -0.49116E-03  9092   0.447E-01    0.160E-01
DAV:   4    -0.142138350532E+03    0.19501E-03   -0.10636E-03  8804   0.369E-01    0.129E-01
DAV:   5    -0.142138303038E+03    0.47494E-04   -0.17093E-04  7748   0.148E-01    0.102E-01
DAV:   6    -0.142138316249E+03   -0.13211E-04   -0.64987E-05  7056   0.605E-02    0.766E-02
DAV:   7    -0.142138349045E+03   -0.32796E-04   -0.24267E-05  4944   0.577E-02    0.342E-02
DAV:   8    -0.142138360478E+03   -0.11432E-04   -0.30647E-05  5732   0.355E-02    0.129E-02
DAV:   9    -0.142138365073E+03   -0.45951E-05   -0.96632E-06  4388   0.245E-02
  49 F= -.15568768E+03 E0= -.15564809E+03  d E =-.661076E-03
       N       E                     dE             d eps       ncg     rms          rms(c)
DAV:   1    -0.142130746969E+03    0.76135E-02   -0.15973E-01  9844   0.541E+00    0.258E-01
DAV:   2    -0.142137886824E+03   -0.71399E-02   -0.73197E-02  7528   0.632E-01    0.133E-01
DAV:   3    -0.142138427410E+03   -0.54059E-03   -0.33793E-03  8144   0.525E-01    0.158E-01
DAV:   4    -0.142138034310E+03    0.39310E-03   -0.11732E-03  8104   0.417E-01    0.818E-02
DAV:   5    -0.142138026581E+03    0.77297E-05   -0.11203E-04  7768   0.108E-01    0.636E-02
DAV:   6    -0.142138031983E+03   -0.54018E-05   -0.44651E-05  6676   0.407E-02
  50 F= -.15568793E+03 E0= -.15564833E+03  d E =-.910491E-03
       N       E                     dE             d eps       ncg     rms          rms(c)
DAV:   1    -0.142107752840E+03    0.30274E-01   -0.63821E-01  9812   0.109E+01    0.493E-01
DAV:   2    -0.142136417274E+03   -0.28664E-01   -0.29301E-01  7584   0.123E+00    0.253E-01
DAV:   3    -0.142137166698E+03   -0.74942E-03   -0.84903E-03 10332   0.434E-01    0.193E-01
DAV:   4    -0.142137136676E+03    0.30022E-04   -0.14585E-03  8192   0.409E-01    0.184E-01
DAV:   5    -0.142136974552E+03    0.16212E-03   -0.38083E-04  7848   0.241E-01    0.145E-01
DAV:   6    -0.142136986964E+03   -0.12412E-04   -0.97669E-05  7884   0.939E-02    0.111E-01
DAV:   7    -0.142137040178E+03   -0.53214E-04   -0.62644E-05  7484   0.804E-02    0.416E-02
DAV:   8    -0.142137053247E+03   -0.13068E-04   -0.51360E-05  6840   0.528E-02    0.163E-02
DAV:   9    -0.142137060287E+03   -0.70403E-05   -0.11563E-05  4580   0.237E-02
  51 F= -.15568813E+03 E0= -.15564856E+03  d E =-.110788E-02
       N       E                     dE             d eps       ncg     rms          rms(c)
DAV:   1    -0.142130776856E+03    0.62764E-02   -0.13913E-01  9812   0.494E+00    0.239E-01
DAV:   2    -0.142136959334E+03   -0.61825E-02   -0.63525E-02  7528   0.567E-01    0.111E-01
DAV:   3    -0.142137123807E+03   -0.16447E-03   -0.17665E-03  9364   0.178E-01    0.787E-02
DAV:   4    -0.142137127074E+03   -0.32666E-05   -0.23954E-04  8356   0.157E-01    0.767E-02
DAV:   5    -0.142137097281E+03    0.29792E-04   -0.81407E-05  4764   0.115E-01    0.607E-02
DAV:   6    -0.142137100659E+03   -0.33780E-05   -0.15679E-05  4584   0.500E-02
  52 F= -.15568841E+03 E0= -.15564890E+03  d E =-.275926E-03
       N       E                     dE             d eps       ncg     rms          rms(c)
DAV:   1    -0.142079682692E+03    0.57415E-01   -0.12432E+00  9820   0.148E+01    0.727E-01
DAV:   2    -0.142135335010E+03   -0.55652E-01   -0.56942E-01  7480   0.169E+00    0.333E-01
DAV:   3    -0.142136687445E+03   -0.13524E-02   -0.16223E-02  9936   0.453E-01    0.241E-01
DAV:   4    -0.142136685047E+03    0.23978E-05   -0.12367E-03  8512   0.295E-01    0.223E-01
DAV:   5    -0.142136576419E+03    0.10863E-03   -0.41512E-04  7728   0.248E-01    0.194E-01
DAV:   6    -0.142136553587E+03    0.22832E-04   -0.14310E-04  6292   0.157E-01    0.155E-01
DAV:   7    -0.142136589224E+03   -0.35638E-04   -0.17283E-04  8856   0.145E-01    0.351E-02
DAV:   8    -0.142136602501E+03   -0.13277E-04   -0.10686E-04  8568   0.582E-02    0.204E-02
DAV:   9    -0.142136607492E+03   -0.49915E-05   -0.16278E-05  4692   0.210E-02
  53 F= -.15568863E+03 E0= -.15564926E+03  d E =-.495022E-03
       N       E                     dE             d eps       ncg     rms          rms(c)
DAV:   1    -0.142132678885E+03    0.39236E-02   -0.17603E-01  8932   0.409E+00    0.215E-01
DAV:   2    -0.142136993387E+03   -0.43145E-02   -0.43938E-02  8820   0.700E-01    0.212E-01
DAV:   3    -0.142137779123E+03   -0.78574E-03   -0.89586E-03  8956   0.105E+00    0.258E-01
DAV:   4    -0.142136541250E+03    0.12379E-02   -0.27538E-03  7856   0.662E-01    0.857E-02
DAV:   5    -0.142136565562E+03   -0.24312E-04   -0.40277E-04  9644   0.155E-01    0.732E-02
DAV:   6    -0.142136554886E+03    0.10676E-04   -0.15830E-04  7260   0.111E-01    0.331E-02
DAV:   7    -0.142136561010E+03   -0.61250E-05   -0.48160E-05  6592   0.582E-02
  54 F= -.15568819E+03 E0= -.15564861E+03  d E =0.435505E-03
       N       E                     dE             d eps       ncg     rms          rms(c)
DAV:   1    -0.142135715715E+03    0.83917E-03   -0.63761E-02  8896   0.245E+00    0.129E-01
DAV:   2    -0.142137233555E+03   -0.15178E-02   -0.15783E-02  8520   0.398E-01    0.117E-01
DAV:   3    -0.142137556439E+03   -0.32288E-03   -0.29908E-03  8676   0.597E-01    0.156E-01
DAV:   4    -0.142137100714E+03    0.45572E-03   -0.97040E-04  7828   0.392E-01    0.500E-02
DAV:   5    -0.142137112996E+03   -0.12282E-04   -0.13568E-04  8860   0.917E-02    0.438E-02
DAV:   6    -0.142137109870E+03    0.31257E-05   -0.55528E-05  6780   0.694E-02
  55 F= -.15568897E+03 E0= -.15564954E+03  d E =-.345882E-03
       N       E                     dE             d eps       ncg     rms          rms(c)
DAV:   1    -0.142133918187E+03    0.31948E-02   -0.80112E-02 10136   0.418E+00    0.187E-01
DAV:   2    -0.142137585059E+03   -0.36669E-02   -0.37781E-02  7472   0.472E-01    0.882E-02
DAV:   3    -0.142137720634E+03   -0.13558E-03   -0.12255E-03  8172   0.215E-01    0.708E-02
DAV:   4    -0.142137697075E+03    0.23560E-04   -0.26552E-04  8064   0.187E-01    0.612E-02
DAV:   5    -0.142137673092E+03    0.23983E-04   -0.54361E-05  4864   0.900E-02    0.462E-02
DAV:   6    -0.142137677510E+03   -0.44182E-05   -0.13938E-05  4420   0.263E-02
  56 F= -.15568922E+03 E0= -.15564978E+03  d E =-.250378E-03
       N       E                     dE             d eps       ncg     rms          rms(c)
DAV:   1    -0.142107504814E+03    0.30168E-01   -0.66392E-01 10284   0.121E+01    0.510E-01
DAV:   2    -0.142138198879E+03   -0.30694E-01   -0.31376E-01  7480   0.134E+00    0.252E-01
DAV:   3    -0.142138939432E+03   -0.74055E-03   -0.89664E-03  8820   0.379E-01    0.176E-01
DAV:   4    -0.142138954160E+03   -0.14727E-04   -0.88223E-04  8452   0.270E-01    0.172E-01
DAV:   5    -0.142138851632E+03    0.10253E-03   -0.27310E-04  7748   0.197E-01    0.144E-01
DAV:   6    -0.142138846333E+03    0.52990E-05   -0.54534E-05  5740   0.840E-02
  57 F= -.15568948E+03 E0= -.15565009E+03  d E =-.512309E-03
       N       E                     dE             d eps       ncg     rms          rms(c)
DAV:   1    -0.142135692573E+03    0.31591E-02   -0.74508E-02  9924   0.393E+00    0.160E-01
DAV:   2    -0.142139013571E+03   -0.33210E-02   -0.33499E-02  7492   0.458E-01    0.106E-01
DAV:   3    -0.142139261076E+03   -0.24751E-03   -0.18289E-03  7852   0.406E-01    0.119E-01
DAV:   4    -0.142139068920E+03    0.19216E-03   -0.66418E-04  8028   0.317E-01    0.649E-02
DAV:   5    -0.142139056428E+03    0.12492E-04   -0.64991E-05  5580   0.922E-02    0.527E-02
DAV:   6    -0.142139060424E+03   -0.39960E-05   -0.29887E-05  5388   0.442E-02
  58 F= -.15568968E+03 E0= -.15565026E+03  d E =-.191105E-03
       N       E                     dE             d eps       ncg     rms          rms(c)
DAV:   1    -0.142138957847E+03    0.98581E-04   -0.28341E-03 11656   0.775E-01    0.279E-02
DAV:   2    -0.142139108676E+03   -0.15083E-03   -0.12622E-03  9384   0.150E-01    0.422E-02
DAV:   3    -0.142139100355E+03    0.83209E-05   -0.25601E-04  8496   0.179E-01    0.346E-02
DAV:   4    -0.142139081135E+03    0.19220E-04   -0.32428E-05  4460   0.679E-02    0.150E-02
DAV:   5    -0.142139083191E+03   -0.20558E-05   -0.75524E-06  4488   0.136E-02
  59 F= -.15568969E+03 E0= -.15565031E+03  d E =-.209601E-03
       N       E                     dE             d eps       ncg     rms          rms(c)
DAV:   1    -0.142138448096E+03    0.63304E-03   -0.15936E-02 10308   0.181E+00    0.717E-02
DAV:   2    -0.142139166884E+03   -0.71879E-03   -0.73348E-03  7484   0.201E-01    0.428E-02
DAV:   3    -0.142139183065E+03   -0.16181E-04   -0.22175E-04  6756   0.655E-02    0.299E-02
DAV:   4    -0.142139182691E+03    0.37331E-06   -0.24371E-05  4956   0.446E-02    0.291E-02
DAV:   5    -0.142139179713E+03    0.29788E-05   -0.70931E-06  4404   0.307E-02
  60 F= -.15568978E+03 E0= -.15565037E+03  d E =-.811702E-04
       N       E                     dE             d eps       ncg     rms          rms(c)
DAV:   1    -0.142132772452E+03    0.64102E-02   -0.14316E-01 10228   0.544E+00    0.224E-01
DAV:   2    -0.142139183172E+03   -0.64107E-02   -0.65370E-02  7528   0.604E-01    0.129E-01
DAV:   3    -0.142139382105E+03   -0.19893E-03   -0.22286E-03  7936   0.287E-01    0.102E-01
DAV:   4    -0.142139365625E+03    0.16480E-04   -0.52481E-04  8116   0.258E-01    0.916E-02
DAV:   5    -0.142139313775E+03    0.51850E-04   -0.12469E-04  5352   0.140E-01    0.711E-02
DAV:   6    -0.142139313938E+03   -0.16231E-06   -0.29323E-05  5360   0.549E-02
  61 F= -.15568986E+03 E0= -.15565037E+03  d E =-.170736E-03
       N       E                     dE             d eps       ncg     rms          rms(c)
DAV:   1    -0.142138114165E+03    0.11996E-02   -0.28146E-02 10568   0.247E+00    0.867E-02
DAV:   2    -0.142139443129E+03   -0.13290E-02   -0.12866E-02  7680   0.333E-01    0.855E-02
DAV:   3    -0.142139593676E+03   -0.15055E-03   -0.13885E-03  8428   0.412E-01    0.103E-01
DAV:   4    -0.142139393273E+03    0.20040E-03   -0.39271E-04  7564   0.245E-01    0.432E-02
DAV:   5    -0.142139403338E+03   -0.10065E-04   -0.35499E-05  5984   0.299E-02    0.382E-02
DAV:   6    -0.142139404338E+03   -0.99992E-06   -0.66757E-06  4396   0.169E-02
  62 F= -.15568991E+03 E0= -.15565042E+03  d E =-.480089E-04
       N       E                     dE             d eps       ncg     rms          rms(c)
DAV:   1    -0.142134398991E+03    0.50043E-02   -0.10976E-01 10124   0.487E+00    0.199E-01
DAV:   2    -0.142139435310E+03   -0.50363E-02   -0.51058E-02  7472   0.547E-01    0.113E-01
DAV:   3    -0.142139785851E+03   -0.35054E-03   -0.23958E-03  8024   0.448E-01    0.134E-01
DAV:   4    -0.142139521673E+03    0.26418E-03   -0.72857E-04  8124   0.330E-01    0.723E-02
DAV:   5    -0.142139521260E+03    0.41295E-06   -0.57469E-05  5448   0.708E-02
  63 F= -.15568995E+03 E0= -.15565045E+03  d E =-.817815E-04
