unknown system                          
           1
     7.529542    0.000000    0.000000
     3.764771    6.520775    0.000000
     0.000000    0.000000   26.207423
   Cu   C 
  36   2
Direct configuration=     1
   0.00000000  0.00000000  0.00000000
   0.00000000  0.33333333  0.00000000
   0.00000000  0.66666667  0.00000000
   0.33333333  0.00000000  0.00000000
   0.33333333  0.33333333  0.00000000
   0.33333333  0.66666667  0.00000000
   0.66666667  0.00000000  0.00000000
   0.66666667  0.33333333  0.00000000
   0.66666667  0.66666667  0.00000000
   0.11111111  0.11111111  0.07819471
   0.11111111  0.44444444  0.07819471
   0.11111111  0.77777778  0.07819471
   0.44444444  0.11111111  0.07819471
   0.44444444  0.44444444  0.07819471
   0.44444444  0.77777778  0.07819471
   0.77777778  0.11111111  0.07819471
   0.77777778  0.44444444  0.07819471
   0.77777778  0.77777778  0.07819471
   0.22196261  0.22196204  0.15689575
   0.22197825  0.55495314  0.15656587
   0.22205797  0.88929948  0.15712459
   0.55557667  0.22204387  0.15686644
   0.55513145  0.55574116  0.15678498
   0.55437916  0.88968243  0.15638833
   0.88981321  0.22096707  0.15714669
   0.89033684  0.55454664  0.15682257
   0.88934822  0.88957617  0.15609877
   0.99095344  0.98951603  0.23867510
   0.99422301  0.34473638  0.23752863
   0.00064450  0.66666306  0.23632624
   0.34848853  0.99280339  0.23741759
   0.33515586  0.33482338  0.23612476
   0.33022764  0.66812331  0.24058696
   0.66664458  0.99935583  0.23493916
   0.66393581  0.33511848  0.23587424
   0.66707968  0.66665208  0.23505606
   0.11877740  0.07392911  0.29141006
   0.15906904  0.87023066  0.30940899
Direct configuration=     2
   0.00000000  0.00000000  0.00000000
   0.00000000  0.33333333  0.00000000
   0.00000000  0.66666667  0.00000000
   0.33333333  0.00000000  0.00000000
   0.33333333  0.33333333  0.00000000
   0.33333333  0.66666667  0.00000000
   0.66666667  0.00000000  0.00000000
   0.66666667  0.33333333  0.00000000
   0.66666667  0.66666667  0.00000000
   0.11111111  0.11111111  0.07819471
   0.11111111  0.44444444  0.07819471
   0.11111111  0.77777778  0.07819471
   0.44444444  0.11111111  0.07819471
   0.44444444  0.44444444  0.07819471
   0.44444444  0.77777778  0.07819471
   0.77777778  0.11111111  0.07819471
   0.77777778  0.44444444  0.07819471
   0.77777778  0.77777778  0.07819471
   0.22181311  0.22153394  0.15703379
   0.22214608  0.55574670  0.15691845
   0.22204102  0.88902770  0.15738078
   0.55564904  0.22214698  0.15683074
   0.55439828  0.55618333  0.15707767
   0.55411908  0.88968825  0.15640050
   0.89025715  0.22071295  0.15727757
   0.89045356  0.55420247  0.15697285
   0.88974165  0.88951824  0.15626805
   0.98861645  0.99305171  0.23764133
   0.99864127  0.33621753  0.23878786
   0.00005151  0.66508971  0.23620493
   0.34258656  0.99628647  0.23801812
   0.33502156  0.33460107  0.23593725
   0.33026736  0.66870916  0.24142016
   0.66598547  0.99953150  0.23481284
   0.66375319  0.33545242  0.23573850
   0.66754977  0.66611169  0.23503702
   0.12774055  0.04114467  0.29392034
   0.15503528  0.90583319  0.30431235
Direct configuration=     3
   0.00000000  0.00000000  0.00000000
   0.00000000  0.33333333  0.00000000
   0.00000000  0.66666667  0.00000000
   0.33333333  0.00000000  0.00000000
   0.33333333  0.33333333  0.00000000
   0.33333333  0.66666667  0.00000000
   0.66666667  0.00000000  0.00000000
   0.66666667  0.33333333  0.00000000
   0.66666667  0.66666667  0.00000000
   0.11111111  0.11111111  0.07819471
   0.11111111  0.44444444  0.07819471
   0.11111111  0.77777778  0.07819471
   0.44444444  0.11111111  0.07819471
   0.44444444  0.44444444  0.07819471
   0.44444444  0.77777778  0.07819471
   0.77777778  0.11111111  0.07819471
   0.77777778  0.44444444  0.07819471
   0.77777778  0.77777778  0.07819471
   0.22194850  0.22192165  0.15690877
   0.22199408  0.55502801  0.15659914
   0.22205637  0.88927383  0.15714876
   0.55558350  0.22205360  0.15686307
   0.55506227  0.55578288  0.15681260
   0.55435462  0.88968298  0.15638948
   0.88985510  0.22094310  0.15715904
   0.89034785  0.55451416  0.15683675
   0.88938534  0.88957070  0.15611475
   0.99073293  0.98984964  0.23857756
   0.99463990  0.34393258  0.23764744
   0.00058855  0.66651461  0.23631480
   0.34793164  0.99313204  0.23747426
   0.33514319  0.33480240  0.23610706
   0.33023139  0.66817858  0.24066558
   0.66658238  0.99937240  0.23492724
   0.66391858  0.33514999  0.23586143
   0.66712403  0.66660109  0.23505426
   0.11962313  0.07083570  0.29164692
   0.15868843  0.87358997  0.30892809
Direct configuration=     4
   0.00000000  0.00000000  0.00000000
   0.00000000  0.33333333  0.00000000
   0.00000000  0.66666667  0.00000000
   0.33333333  0.00000000  0.00000000
   0.33333333  0.33333333  0.00000000
   0.33333333  0.66666667  0.00000000
   0.66666667  0.00000000  0.00000000
   0.66666667  0.33333333  0.00000000
   0.66666667  0.66666667  0.00000000
   0.11111111  0.11111111  0.07819471
   0.11111111  0.44444444  0.07819471
   0.11111111  0.77777778  0.07819471
   0.44444444  0.11111111  0.07819471
   0.44444444  0.44444444  0.07819471
   0.44444444  0.77777778  0.07819471
   0.77777778  0.11111111  0.07819471
   0.77777778  0.44444444  0.07819471
   0.77777778  0.77777778  0.07819471
   0.22193734  0.22188970  0.15691908
   0.22200661  0.55508723  0.15662545
   0.22205511  0.88925356  0.15716788
   0.55558890  0.22206129  0.15686041
   0.55500757  0.55581587  0.15683444
   0.55433521  0.88968341  0.15639039
   0.88988823  0.22092413  0.15716880
   0.89035656  0.55448848  0.15684796
   0.88941470  0.88956638  0.15612738
   0.99055854  0.99011348  0.23850042
   0.99496959  0.34329690  0.23774141
   0.00054430  0.66639720  0.23630574
   0.34749124  0.99339195  0.23751907
   0.33513317  0.33478581  0.23609307
   0.33023435  0.66822230  0.24072775
   0.66653320  0.99938551  0.23491781
   0.66390495  0.33517491  0.23585130
   0.66715911  0.66656076  0.23505284
   0.12029196  0.06838933  0.29183424
   0.15838743  0.87624664  0.30854778
Direct configuration=     5
   0.00000000  0.00000000  0.00000000
   0.00000000  0.33333333  0.00000000
   0.00000000  0.66666667  0.00000000
   0.33333333  0.00000000  0.00000000
   0.33333333  0.33333333  0.00000000
   0.33333333  0.66666667  0.00000000
   0.66666667  0.00000000  0.00000000
   0.66666667  0.33333333  0.00000000
   0.66666667  0.66666667  0.00000000
   0.11111111  0.11111111  0.07819471
   0.11111111  0.44444444  0.07819471
   0.11111111  0.77777778  0.07819471
   0.44444444  0.11111111  0.07819471
   0.44444444  0.44444444  0.07819471
   0.44444444  0.77777778  0.07819471
   0.77777778  0.11111111  0.07819471
   0.77777778  0.44444444  0.07819471
   0.77777778  0.77777778  0.07819471
   0.22189170  0.22175899  0.15696123
   0.22205785  0.55532954  0.15673310
   0.22204993  0.88917057  0.15724610
   0.55561100  0.22209278  0.15684951
   0.55478370  0.55595089  0.15692381
   0.55425580  0.88968519  0.15639410
   0.89002378  0.22084654  0.15720877
   0.89039220  0.55438339  0.15689385
   0.88953483  0.88954869  0.15617907
   0.98984496  0.99119307  0.23818476
   0.99631868  0.34069573  0.23812591
   0.00036323  0.66591679  0.23626870
   0.34568911  0.99445548  0.23770244
   0.33509216  0.33471793  0.23603582
   0.33024648  0.66840119  0.24098216
   0.66633195  0.99943915  0.23487924
   0.66384919  0.33527688  0.23580985
   0.66730265  0.66639576  0.23504703
   0.12302879  0.05837882  0.29260074
   0.15715575  0.88711763  0.30699155
Direct configuration=     6
   0.00000000  0.00000000  0.00000000
   0.00000000  0.33333333  0.00000000
   0.00000000  0.66666667  0.00000000
   0.33333333  0.00000000  0.00000000
   0.33333333  0.33333333  0.00000000
   0.33333333  0.66666667  0.00000000
   0.66666667  0.00000000  0.00000000
   0.66666667  0.33333333  0.00000000
   0.66666667  0.66666667  0.00000000
   0.11111111  0.11111111  0.07819471
   0.11111111  0.44444444  0.07819471
   0.11111111  0.77777778  0.07819471
   0.44444444  0.11111111  0.07819471
   0.44444444  0.44444444  0.07819471
   0.44444444  0.77777778  0.07819471
   0.77777778  0.11111111  0.07819471
   0.77777778  0.44444444  0.07819471
   0.77777778  0.77777778  0.07819471
   0.22191407  0.22182307  0.15694056
   0.22203273  0.55521075  0.15668033
   0.22205247  0.88921125  0.15720775
   0.55560017  0.22207734  0.15685485
   0.55489345  0.55588470  0.15687999
   0.55429473  0.88968432  0.15639228
   0.88995733  0.22088458  0.15718918
   0.89037473  0.55443491  0.15687135
   0.88947594  0.88955736  0.15615373
   0.99019479  0.99066380  0.23833951
   0.99565729  0.34197094  0.23793741
   0.00045200  0.66615231  0.23628686
   0.34657260  0.99393409  0.23761254
   0.33511226  0.33475121  0.23606389
   0.33024054  0.66831349  0.24085744
   0.66643061  0.99941286  0.23489815
   0.66387652  0.33522689  0.23583017
   0.66723228  0.66647665  0.23504988
   0.12168707  0.06328643  0.29222496
   0.15775957  0.88178817  0.30775449
Direct configuration=     7
   0.00000000  0.00000000  0.00000000
   0.00000000  0.33333333  0.00000000
   0.00000000  0.66666667  0.00000000
   0.33333333  0.00000000  0.00000000
   0.33333333  0.33333333  0.00000000
   0.33333333  0.66666667  0.00000000
   0.66666667  0.00000000  0.00000000
   0.66666667  0.33333333  0.00000000
   0.66666667  0.66666667  0.00000000
   0.11111111  0.11111111  0.07819471
   0.11111111  0.44444444  0.07819471
   0.11111111  0.77777778  0.07819471
   0.44444444  0.11111111  0.07819471
   0.44444444  0.44444444  0.07819471
   0.44444444  0.77777778  0.07819471
   0.77777778  0.11111111  0.07819471
   0.77777778  0.44444444  0.07819471
   0.77777778  0.77777778  0.07819471
   0.22190941  0.22180972  0.15694487
   0.22203796  0.55523550  0.15669132
   0.22205194  0.88920278  0.15721574
   0.55560242  0.22208056  0.15685374
   0.55487058  0.55589849  0.15688912
   0.55428662  0.88968450  0.15639266
   0.88997117  0.22087665  0.15719326
   0.89037837  0.55442418  0.15687604
   0.88948821  0.88955556  0.15615901
   0.99012190  0.99077408  0.23830727
   0.99579510  0.34170523  0.23797668
   0.00043351  0.66610324  0.23628308
   0.34638851  0.99404273  0.23763127
   0.33510807  0.33474428  0.23605804
   0.33024177  0.66833176  0.24088343
   0.66641005  0.99941834  0.23489421
   0.66387083  0.33523730  0.23582594
   0.66724694  0.66645980  0.23504928
   0.12196664  0.06226386  0.29230326
   0.15763376  0.88289864  0.30759552
Direct configuration=     8
   0.00000000  0.00000000  0.00000000
   0.00000000  0.33333333  0.00000000
   0.00000000  0.66666667  0.00000000
   0.33333333  0.00000000  0.00000000
   0.33333333  0.33333333  0.00000000
   0.33333333  0.66666667  0.00000000
   0.66666667  0.00000000  0.00000000
   0.66666667  0.33333333  0.00000000
   0.66666667  0.66666667  0.00000000
   0.11111111  0.11111111  0.07819471
   0.11111111  0.44444444  0.07819471
   0.11111111  0.77777778  0.07819471
   0.44444444  0.11111111  0.07819471
   0.44444444  0.44444444  0.07819471
   0.44444444  0.77777778  0.07819471
   0.77777778  0.11111111  0.07819471
   0.77777778  0.44444444  0.07819471
   0.77777778  0.77777778  0.07819471
   0.22190836  0.22180671  0.15694584
   0.22203914  0.55524108  0.15669380
   0.22205182  0.88920087  0.15721754
   0.55560293  0.22208128  0.15685349
   0.55486543  0.55590160  0.15689118
   0.55428479  0.88968454  0.15639275
   0.88997429  0.22087487  0.15719418
   0.89037919  0.55442176  0.15687710
   0.88949097  0.88955515  0.15616020
   0.99010547  0.99079894  0.23830000
   0.99582616  0.34164535  0.23798554
   0.00042934  0.66609218  0.23628223
   0.34634703  0.99406721  0.23763549
   0.33510713  0.33474271  0.23605672
   0.33024205  0.66833588  0.24088928
   0.66640542  0.99941957  0.23489333
   0.66386954  0.33523965  0.23582498
   0.66725025  0.66645600  0.23504915
   0.12202964  0.06203341  0.29232091
   0.15760540  0.88314889  0.30755969
Direct configuration=     9
   0.00000000  0.00000000  0.00000000
   0.00000000  0.33333333  0.00000000
   0.00000000  0.66666667  0.00000000
   0.33333333  0.00000000  0.00000000
   0.33333333  0.33333333  0.00000000
   0.33333333  0.66666667  0.00000000
   0.66666667  0.00000000  0.00000000
   0.66666667  0.33333333  0.00000000
   0.66666667  0.66666667  0.00000000
   0.11111111  0.11111111  0.07819471
   0.11111111  0.44444444  0.07819471
   0.11111111  0.77777778  0.07819471
   0.44444444  0.11111111  0.07819471
   0.44444444  0.44444444  0.07819471
   0.44444444  0.77777778  0.07819471
   0.77777778  0.11111111  0.07819471
   0.77777778  0.44444444  0.07819471
   0.77777778  0.77777778  0.07819471
   0.22182478  0.22148481  0.15705645
   0.22222316  0.55588144  0.15700381
   0.22211930  0.88891086  0.15743204
   0.55561493  0.22218769  0.15680323
   0.55419455  0.55628954  0.15716568
   0.55388516  0.88978621  0.15646543
   0.89030638  0.22069966  0.15728868
   0.89058823  0.55394368  0.15704459
   0.88982356  0.88956227  0.15630843
   0.98644787  0.99379697  0.23679238
   0.99934159  0.33466511  0.23905065
  -0.00009492  0.66466709  0.23617005
   0.34215867  0.99700091  0.23800370
   0.33501006  0.33454949  0.23589239
   0.33014204  0.66866628  0.24164468
   0.66554810  0.99958623  0.23477175
   0.66353994  0.33563226  0.23569513
   0.66773707  0.66592758  0.23503010
   0.12430257  0.06450177  0.29238503
   0.16112648  0.88311767  0.30590005
Direct configuration=    10
   0.00000000  0.00000000  0.00000000
   0.00000000  0.33333333  0.00000000
   0.00000000  0.66666667  0.00000000
   0.33333333  0.00000000  0.00000000
   0.33333333  0.33333333  0.00000000
   0.33333333  0.66666667  0.00000000
   0.66666667  0.00000000  0.00000000
   0.66666667  0.33333333  0.00000000
   0.66666667  0.66666667  0.00000000
   0.11111111  0.11111111  0.07819471
   0.11111111  0.44444444  0.07819471
   0.11111111  0.77777778  0.07819471
   0.44444444  0.11111111  0.07819471
   0.44444444  0.44444444  0.07819471
   0.44444444  0.77777778  0.07819471
   0.77777778  0.11111111  0.07819471
   0.77777778  0.44444444  0.07819471
   0.77777778  0.77777778  0.07819471
   0.22160815  0.22065042  0.15734317
   0.22270013  0.55754131  0.15780738
   0.22229420  0.88815913  0.15798803
   0.55564603  0.22246351  0.15667296
   0.55245559  0.55729511  0.15787720
   0.55284927  0.89004975  0.15665383
   0.89116717  0.22024551  0.15753363
   0.89113009  0.55270444  0.15747875
   0.89068567  0.88958074  0.15669266
   0.97696703  0.00156817  0.23288447
   0.00845392  0.31657165  0.24181154
  -0.00145385  0.66097314  0.23587929
   0.33130206  0.00460535  0.23895812
   0.33475843  0.33404865  0.23546643
   0.32988278  0.66952270  0.24360275
   0.66332584  0.00001823  0.23445661
   0.66268556  0.33664993  0.23535853
   0.66899894  0.66455788  0.23498073
   0.13019422  0.07089997  0.29255123
   0.17025345  0.88303674  0.30159811
Direct configuration=    11
   0.00000000  0.00000000  0.00000000
   0.00000000  0.33333333  0.00000000
   0.00000000  0.66666667  0.00000000
   0.33333333  0.00000000  0.00000000
   0.33333333  0.33333333  0.00000000
   0.33333333  0.66666667  0.00000000
   0.66666667  0.00000000  0.00000000
   0.66666667  0.33333333  0.00000000
   0.66666667  0.66666667  0.00000000
   0.11111111  0.11111111  0.07819471
   0.11111111  0.44444444  0.07819471
   0.11111111  0.77777778  0.07819471
   0.44444444  0.11111111  0.07819471
   0.44444444  0.44444444  0.07819471
   0.44444444  0.77777778  0.07819471
   0.77777778  0.11111111  0.07819471
   0.77777778  0.44444444  0.07819471
   0.77777778  0.77777778  0.07819471
   0.22164752  0.22080205  0.15729106
   0.22261345  0.55723967  0.15766135
   0.22226242  0.88829574  0.15788699
   0.55564037  0.22241339  0.15669663
   0.55277160  0.55711237  0.15774790
   0.55303752  0.89000186  0.15661959
   0.89101074  0.22032804  0.15748911
   0.89103162  0.55292964  0.15739985
   0.89052900  0.88957738  0.15662284
   0.97868993  0.00015595  0.23359463
   0.00679798  0.31985968  0.24130982
  -0.00120690  0.66164442  0.23593213
   0.33327498  0.00322344  0.23878468
   0.33480416  0.33413967  0.23554384
   0.32992989  0.66936707  0.24324692
   0.66372968 -0.00006028  0.23451388
   0.66284082  0.33646500  0.23541970
   0.66876963  0.66480679  0.23498970
   0.12912356  0.06973726  0.29252103
   0.16859486  0.88305145  0.30237988
Direct configuration=    12
   0.00000000  0.00000000  0.00000000
   0.00000000  0.33333333  0.00000000
   0.00000000  0.66666667  0.00000000
   0.33333333  0.00000000  0.00000000
   0.33333333  0.33333333  0.00000000
   0.33333333  0.66666667  0.00000000
   0.66666667  0.00000000  0.00000000
   0.66666667  0.33333333  0.00000000
   0.66666667  0.66666667  0.00000000
   0.11111111  0.11111111  0.07819471
   0.11111111  0.44444444  0.07819471
   0.11111111  0.77777778  0.07819471
   0.44444444  0.11111111  0.07819471
   0.44444444  0.44444444  0.07819471
   0.44444444  0.77777778  0.07819471
   0.77777778  0.11111111  0.07819471
   0.77777778  0.44444444  0.07819471
   0.77777778  0.77777778  0.07819471
   0.22151891  0.22083043  0.15736447
   0.22274454  0.55764046  0.15800299
   0.22296367  0.88774028  0.15800859
   0.55549378  0.22257649  0.15654984
   0.55223398  0.55756050  0.15802587
   0.55254983  0.89002309  0.15678934
   0.89071709  0.22159680  0.15721154
   0.89148930  0.55184097  0.15771246
   0.88999411  0.88870567  0.15627138
   0.97849502  0.00143832  0.23310454
   0.00824984  0.31540887  0.24295081
  -0.00179328  0.65987179  0.23586288
   0.33507182  0.00251210  0.23847334
   0.33477698  0.33433237  0.23533027
   0.32835589  0.67063693  0.24453024
   0.66118674 -0.00012058  0.23438267
   0.66146301  0.33778188  0.23531578
   0.66922918  0.66400241  0.23503506
   0.12702831  0.07211955  0.29253767
   0.17426203  0.88478803  0.29915332
Direct configuration=    13
   0.00000000  0.00000000  0.00000000
   0.00000000  0.33333333  0.00000000
   0.00000000  0.66666667  0.00000000
   0.33333333  0.00000000  0.00000000
   0.33333333  0.33333333  0.00000000
   0.33333333  0.66666667  0.00000000
   0.66666667  0.00000000  0.00000000
   0.66666667  0.33333333  0.00000000
   0.66666667  0.66666667  0.00000000
   0.11111111  0.11111111  0.07819471
   0.11111111  0.44444444  0.07819471
   0.11111111  0.77777778  0.07819471
   0.44444444  0.11111111  0.07819471
   0.44444444  0.44444444  0.07819471
   0.44444444  0.77777778  0.07819471
   0.77777778  0.11111111  0.07819471
   0.77777778  0.44444444  0.07819471
   0.77777778  0.77777778  0.07819471
   0.22140297  0.22085602  0.15743064
   0.22286271  0.55800177  0.15831097
   0.22359584  0.88723954  0.15811821
   0.55536162  0.22272352  0.15641751
   0.55174933  0.55796447  0.15827646
   0.55211019  0.89004223  0.15694236
   0.89045237  0.22274056  0.15696132
   0.89190189  0.55085956  0.15799426
   0.88951192  0.88791985  0.15595454
   0.97831932  0.00259435  0.23266274
   0.00955865  0.31139659  0.24443013
  -0.00232188  0.65827381  0.23580045
   0.33669164  0.00187084  0.23819267
   0.33475247  0.33450608  0.23513774
   0.32693696  0.67178169  0.24568713
   0.65889435 -0.00017493  0.23426439
   0.66022094  0.33896901  0.23522210
   0.66964346  0.66327728  0.23507595
   0.12513948  0.07426714  0.29255268
   0.17937085  0.88635352  0.29624466
Direct configuration=    14
   0.00000000  0.00000000  0.00000000
   0.00000000  0.33333333  0.00000000
   0.00000000  0.66666667  0.00000000
   0.33333333  0.00000000  0.00000000
   0.33333333  0.33333333  0.00000000
   0.33333333  0.66666667  0.00000000
   0.66666667  0.00000000  0.00000000
   0.66666667  0.33333333  0.00000000
   0.66666667  0.66666667  0.00000000
   0.11111111  0.11111111  0.07819471
   0.11111111  0.44444444  0.07819471
   0.11111111  0.77777778  0.07819471
   0.44444444  0.11111111  0.07819471
   0.44444444  0.44444444  0.07819471
   0.44444444  0.77777778  0.07819471
   0.77777778  0.11111111  0.07819471
   0.77777778  0.44444444  0.07819471
   0.77777778  0.77777778  0.07819471
   0.22132969  0.22092337  0.15745551
   0.22289049  0.55812219  0.15842374
   0.22381759  0.88705657  0.15813740
   0.55532367  0.22278083  0.15635814
   0.55157612  0.55812158  0.15836362
   0.55197056  0.89000118  0.15698946
   0.89028090  0.22326386  0.15683561
   0.89208043  0.55041715  0.15811007
   0.88924513  0.88757584  0.15580525
   0.97827947  0.00277917  0.23253342
   0.00965003  0.31056138  0.24505456
  -0.00256091  0.65766728  0.23577790
   0.33796854  0.00117578  0.23800745
   0.33470563  0.33462741  0.23506343
   0.32645408  0.67191541  0.24613004
   0.65809314 -0.00021830  0.23420957
   0.65964550  0.33945698  0.23518656
   0.66982642  0.66289372  0.23510950
   0.12331183  0.07729626  0.29253677
   0.18231228  0.88514978  0.29506331
Direct configuration=    15
   0.00000000  0.00000000  0.00000000
   0.00000000  0.33333333  0.00000000
   0.00000000  0.66666667  0.00000000
   0.33333333  0.00000000  0.00000000
   0.33333333  0.33333333  0.00000000
   0.33333333  0.66666667  0.00000000
   0.66666667  0.00000000  0.00000000
   0.66666667  0.33333333  0.00000000
   0.66666667  0.66666667  0.00000000
   0.11111111  0.11111111  0.07819471
   0.11111111  0.44444444  0.07819471
   0.11111111  0.77777778  0.07819471
   0.44444444  0.11111111  0.07819471
   0.44444444  0.44444444  0.07819471
   0.44444444  0.77777778  0.07819471
   0.77777778  0.11111111  0.07819471
   0.77777778  0.44444444  0.07819471
   0.77777778  0.77777778  0.07819471
   0.22129307  0.22095703  0.15746794
   0.22290438  0.55818238  0.15848010
   0.22392842  0.88696512  0.15814698
   0.55530471  0.22280948  0.15632847
   0.55148955  0.55820010  0.15840718
   0.55190077  0.88998066  0.15701300
   0.89019520  0.22352541  0.15677278
   0.89216967  0.55019603  0.15816796
   0.88911178  0.88740390  0.15573063
   0.97825954  0.00287155  0.23246879
   0.00969570  0.31014393  0.24536666
  -0.00268038  0.65736412  0.23576663
   0.33860675  0.00082838  0.23791488
   0.33468222  0.33468806  0.23502628
   0.32621273  0.67198225  0.24635142
   0.65769268 -0.00023998  0.23418217
   0.65935789  0.33970087  0.23516880
   0.66991787  0.66270201  0.23512627
   0.12239834  0.07881026  0.29252881
   0.18378245  0.88454813  0.29447285
Direct configuration=    16
   0.00000000  0.00000000  0.00000000
   0.00000000  0.33333333  0.00000000
   0.00000000  0.66666667  0.00000000
   0.33333333  0.00000000  0.00000000
   0.33333333  0.33333333  0.00000000
   0.33333333  0.66666667  0.00000000
   0.66666667  0.00000000  0.00000000
   0.66666667  0.33333333  0.00000000
   0.66666667  0.66666667  0.00000000
   0.11111111  0.11111111  0.07819471
   0.11111111  0.44444444  0.07819471
   0.11111111  0.77777778  0.07819471
   0.44444444  0.11111111  0.07819471
   0.44444444  0.44444444  0.07819471
   0.44444444  0.77777778  0.07819471
   0.77777778  0.11111111  0.07819471
   0.77777778  0.44444444  0.07819471
   0.77777778  0.77777778  0.07819471
   0.22125621  0.22102395  0.15746787
   0.22287761  0.55816164  0.15846602
   0.22386239  0.88699728  0.15811702
   0.55532980  0.22280470  0.15632312
   0.55151152  0.55819327  0.15838907
   0.55195933  0.88991024  0.15698866
   0.89012212  0.22356975  0.15674938
   0.89217740  0.55014524  0.15816774
   0.88903661  0.88738426  0.15571492
   0.97822717  0.00256952  0.23250624
   0.00913991  0.31116409  0.24538844
  -0.00271855  0.65741262  0.23576845
   0.33919673  0.00036068  0.23784771
   0.33462846  0.33473788  0.23502959
   0.32649138  0.67133481  0.24628200
   0.65790029 -0.00026264  0.23417025
   0.65928197  0.33968768  0.23516975
   0.66994593  0.66257417  0.23514870
   0.12182942  0.07925833  0.29254805
   0.18417220  0.88463391  0.29444827
Direct configuration=    17
   0.00000000  0.00000000  0.00000000
   0.00000000  0.33333333  0.00000000
   0.00000000  0.66666667  0.00000000
   0.33333333  0.00000000  0.00000000
   0.33333333  0.33333333  0.00000000
   0.33333333  0.66666667  0.00000000
   0.66666667  0.00000000  0.00000000
   0.66666667  0.33333333  0.00000000
   0.66666667  0.66666667  0.00000000
   0.11111111  0.11111111  0.07819471
   0.11111111  0.44444444  0.07819471
   0.11111111  0.77777778  0.07819471
   0.44444444  0.11111111  0.07819471
   0.44444444  0.44444444  0.07819471
   0.44444444  0.77777778  0.07819471
   0.77777778  0.11111111  0.07819471
   0.77777778  0.44444444  0.07819471
   0.77777778  0.77777778  0.07819471
   0.22114565  0.22122472  0.15746765
   0.22279732  0.55809940  0.15842380
   0.22366429  0.88709377  0.15802714
   0.55540508  0.22279036  0.15630705
   0.55157742  0.55817279  0.15833474
   0.55213500  0.88969899  0.15691563
   0.88990288  0.22370276  0.15667917
   0.89220059  0.54999287  0.15816711
   0.88881109  0.88732533  0.15566781
   0.97813006  0.00166342  0.23261860
   0.00747254  0.31422458  0.24545381
  -0.00283304  0.65755810  0.23577390
   0.34096668 -0.00104241  0.23764620
   0.33446718  0.33488735  0.23503951
   0.32732734  0.66939248  0.24607377
   0.65852312 -0.00033064  0.23413449
   0.65905422  0.33964813  0.23517258
   0.67003012  0.66219065  0.23521599
   0.12012268  0.08060252  0.29260575
   0.18534146  0.88489125  0.29437451
Direct configuration=    18
   0.00000000  0.00000000  0.00000000
   0.00000000  0.33333333  0.00000000
   0.00000000  0.66666667  0.00000000
   0.33333333  0.00000000  0.00000000
   0.33333333  0.33333333  0.00000000
   0.33333333  0.66666667  0.00000000
   0.66666667  0.00000000  0.00000000
   0.66666667  0.33333333  0.00000000
   0.66666667  0.66666667  0.00000000
   0.11111111  0.11111111  0.07819471
   0.11111111  0.44444444  0.07819471
   0.11111111  0.77777778  0.07819471
   0.44444444  0.11111111  0.07819471
   0.44444444  0.44444444  0.07819471
   0.44444444  0.77777778  0.07819471
   0.77777778  0.11111111  0.07819471
   0.77777778  0.44444444  0.07819471
   0.77777778  0.77777778  0.07819471
   0.22092453  0.22162625  0.15746722
   0.22263672  0.55797494  0.15833935
   0.22326809  0.88728674  0.15784737
   0.55555565  0.22276169  0.15627492
   0.55170922  0.55813183  0.15822607
   0.55248635  0.88927648  0.15676956
   0.88946440  0.22396879  0.15653875
   0.89224698  0.54968812  0.15816584
   0.88836004  0.88720746  0.15557357
   0.97793584 -0.00014877  0.23284332
   0.00413779  0.32034557  0.24558454
  -0.00306202  0.65784906  0.23578481
   0.34450657 -0.00384861  0.23724317
   0.33414461  0.33518628  0.23505935
   0.32899925  0.66550782  0.24565731
   0.65976877 -0.00046662  0.23406297
   0.65859871  0.33956902  0.23517824
   0.67019850  0.66142361  0.23535056
   0.11670920  0.08329090  0.29272114
   0.18767997  0.88540593  0.29422700
Direct configuration=    19
   0.00000000  0.00000000  0.00000000
   0.00000000  0.33333333  0.00000000
   0.00000000  0.66666667  0.00000000
   0.33333333  0.00000000  0.00000000
   0.33333333  0.33333333  0.00000000
   0.33333333  0.66666667  0.00000000
   0.66666667  0.00000000  0.00000000
   0.66666667  0.33333333  0.00000000
   0.66666667  0.66666667  0.00000000
   0.11111111  0.11111111  0.07819471
   0.11111111  0.44444444  0.07819471
   0.11111111  0.77777778  0.07819471
   0.44444444  0.11111111  0.07819471
   0.44444444  0.44444444  0.07819471
   0.44444444  0.77777778  0.07819471
   0.77777778  0.11111111  0.07819471
   0.77777778  0.44444444  0.07819471
   0.77777778  0.77777778  0.07819471
   0.22048229  0.22242932  0.15746637
   0.22231553  0.55772601  0.15817046
   0.22247570  0.88767269  0.15748783
   0.55585677  0.22270436  0.15621067
   0.55197283  0.55804990  0.15800875
   0.55318905  0.88843146  0.15647743
   0.88858743  0.22450086  0.15625791
   0.89233976  0.54907862  0.15816330
   0.88745794  0.88697174  0.15538511
   0.97754739 -0.00377316  0.23329277
  -0.00253171  0.33258754  0.24584600
  -0.00351999  0.65843099  0.23580662
   0.35158634 -0.00946100  0.23643713
   0.33349948  0.33578414  0.23509902
   0.33234307  0.65773851  0.24482438
   0.66226006 -0.00073860  0.23391994
   0.65768770  0.33941080  0.23518957
   0.67053525  0.65988953  0.23561971
   0.10988223  0.08866766  0.29295194
   0.19235700  0.88643529  0.29393198
Direct configuration=    20
   0.00000000  0.00000000  0.00000000
   0.00000000  0.33333333  0.00000000
   0.00000000  0.66666667  0.00000000
   0.33333333  0.00000000  0.00000000
   0.33333333  0.33333333  0.00000000
   0.33333333  0.66666667  0.00000000
   0.66666667  0.00000000  0.00000000
   0.66666667  0.33333333  0.00000000
   0.66666667  0.66666667  0.00000000
   0.11111111  0.11111111  0.07819471
   0.11111111  0.44444444  0.07819471
   0.11111111  0.77777778  0.07819471
   0.44444444  0.11111111  0.07819471
   0.44444444  0.44444444  0.07819471
   0.44444444  0.77777778  0.07819471
   0.77777778  0.11111111  0.07819471
   0.77777778  0.44444444  0.07819471
   0.77777778  0.77777778  0.07819471
   0.22078475  0.22188008  0.15746695
   0.22253520  0.55789626  0.15828597
   0.22301764  0.88740873  0.15773373
   0.55565082  0.22274357  0.15625462
   0.55179254  0.55810593  0.15815738
   0.55270845  0.88900939  0.15667723
   0.88918721  0.22413696  0.15644999
   0.89227630  0.54949548  0.15816504
   0.88807491  0.88713296  0.15551401
   0.97781306 -0.00129433  0.23298538
   0.00202976  0.32421490  0.24566718
  -0.00320677  0.65803299  0.23579170
   0.34674428 -0.00562252  0.23698841
   0.33394070  0.33537525  0.23507189
   0.33005613  0.66305217  0.24539404
   0.66055619 -0.00055259  0.23401777
   0.65831077  0.33951901  0.23518183
   0.67030494  0.66093873  0.23543563
   0.11455140  0.08499034  0.29279409
   0.18915824  0.88573128  0.29413376
Direct configuration=    21
   0.00000000  0.00000000  0.00000000
   0.00000000  0.33333333  0.00000000
   0.00000000  0.66666667  0.00000000
   0.33333333  0.00000000  0.00000000
   0.33333333  0.33333333  0.00000000
   0.33333333  0.66666667  0.00000000
   0.66666667  0.00000000  0.00000000
   0.66666667  0.33333333  0.00000000
   0.66666667  0.66666667  0.00000000